 Entering Gaussian System, Link 0=g16
 Initial command:
 /cineca/prod/opt/applications/g16/C.01/binary/g16/l1.exe "/gpfs/scratch/userexternal/lorian00/G16/5041891/Gau-22130.inp" -scrdir="/gpfs/scratch/userexternal/lorian00/G16/5041891/"
 Entering Link 1 = /cineca/prod/opt/applications/g16/C.01/binary/g16/l1.exe PID=     22132.
  
 Copyright (c) 1988-2019, Gaussian, Inc.  All Rights Reserved.
  
 This is part of the Gaussian(R) 16 program.  It is based on
 the Gaussian(R) 09 system (copyright 2009, Gaussian, Inc.),
 the Gaussian(R) 03 system (copyright 2003, Gaussian, Inc.),
 the Gaussian(R) 98 system (copyright 1998, Gaussian, Inc.),
 the Gaussian(R) 94 system (copyright 1995, Gaussian, Inc.),
 the Gaussian 92(TM) system (copyright 1992, Gaussian, Inc.),
 the Gaussian 90(TM) system (copyright 1990, Gaussian, Inc.),
 the Gaussian 88(TM) system (copyright 1988, Gaussian, Inc.),
 the Gaussian 86(TM) system (copyright 1986, Carnegie Mellon
 University), and the Gaussian 82(TM) system (copyright 1983,
 Carnegie Mellon University). Gaussian is a federally registered
 trademark of Gaussian, Inc.
  
 This software contains proprietary and confidential information,
 including trade secrets, belonging to Gaussian, Inc.
  
 This software is provided under written license and may be
 used, copied, transmitted, or stored only in accord with that
 written license.
  
 The following legend is applicable only to US Government
 contracts under FAR:
  
                    RESTRICTED RIGHTS LEGEND
  
 Use, reproduction and disclosure by the US Government is
 subject to restrictions as set forth in subparagraphs (a)
 and (c) of the Commercial Computer Software - Restricted
 Rights clause in FAR 52.227-19.
  
 Gaussian, Inc.
 340 Quinnipiac St., Bldg. 40, Wallingford CT 06492
  
  
 ---------------------------------------------------------------
 Warning -- This program may not be used in any manner that
 competes with the business of Gaussian, Inc. or will provide
 assistance to any competitor of Gaussian, Inc.  The licensee
 of this program is prohibited from giving any competitor of
 Gaussian, Inc. access to this program.  By using this program,
 the user acknowledges that Gaussian, Inc. is engaged in the
 business of creating and licensing software in the field of
 computational chemistry and represents and warrants to the
 licensee that it is not a competitor of Gaussian, Inc. and that
 it will not use this program in any manner prohibited above.
 ---------------------------------------------------------------
  

 Cite this work as:
 Gaussian 16, Revision C.01,
 M. J. Frisch, G. W. Trucks, H. B. Schlegel, G. E. Scuseria, 
 M. A. Robb, J. R. Cheeseman, G. Scalmani, V. Barone, 
 G. A. Petersson, H. Nakatsuji, X. Li, M. Caricato, A. V. Marenich, 
 J. Bloino, B. G. Janesko, R. Gomperts, B. Mennucci, H. P. Hratchian, 
 J. V. Ortiz, A. F. Izmaylov, J. L. Sonnenberg, D. Williams-Young, 
 F. Ding, F. Lipparini, F. Egidi, J. Goings, B. Peng, A. Petrone, 
 T. Henderson, D. Ranasinghe, V. G. Zakrzewski, J. Gao, N. Rega, 
 G. Zheng, W. Liang, M. Hada, M. Ehara, K. Toyota, R. Fukuda, 
 J. Hasegawa, M. Ishida, T. Nakajima, Y. Honda, O. Kitao, H. Nakai, 
 T. Vreven, K. Throssell, J. A. Montgomery, Jr., J. E. Peralta, 
 F. Ogliaro, M. J. Bearpark, J. J. Heyd, E. N. Brothers, K. N. Kudin, 
 V. N. Staroverov, T. A. Keith, R. Kobayashi, J. Normand, 
 K. Raghavachari, A. P. Rendell, J. C. Burant, S. S. Iyengar, 
 J. Tomasi, M. Cossi, J. M. Millam, M. Klene, C. Adamo, R. Cammi, 
 J. W. Ochterski, R. L. Martin, K. Morokuma, O. Farkas, 
 J. B. Foresman, and D. J. Fox, Gaussian, Inc., Wallingford CT, 2019.
 
 ******************************************
 Gaussian 16:  ES64L-G16RevC.01  3-Jul-2019
                16-Aug-2020 
 ******************************************
 %chk=Opt.chk
 %nprocshared=16
 Will use up to   16 processors via shared memory.
 %mem=16384MB
 ----------------------------------------------------------------------
 #P Opt(TS, NoEigenTest, CalcFC) Freq M062X/6-311++G(d,p) scrf=(smd,sol
 vent=PentylEthanoate)
 ----------------------------------------------------------------------
 1/5=1,10=4,11=1,18=20,26=3,38=1/1,3;
 2/9=110,12=2,17=6,18=5,40=1/2;
 3/5=4,6=6,7=1111,11=2,25=1,30=1,70=32201,71=2,72=162,74=-55,140=1/1,2,3;
 4//1;
 5/5=2,38=5,53=162/2;
 8/6=4,10=90,11=11/1;
 11/6=1,8=1,9=11,15=111,16=1/1,2,10;
 10/6=1,13=1/2;
 6/7=2,8=2,9=2,10=2,28=1/1;
 7/10=1,25=1/1,2,3,16;
 1/5=1,10=4,11=1,18=20,26=3/3(2);
 2/9=110/2;
 99//99;
 2/9=110/2;
 3/5=4,6=6,7=1111,11=2,25=1,30=1,70=32205,71=1,72=162,74=-55/1,2,3;
 4/5=5,16=3,69=1/1;
 5/5=2,38=5,53=162/2;
 7//1,2,3,16;
 1/5=1,11=1,18=20,26=3/3(-5);
 2/9=110/2;
 6/7=2,8=2,9=2,10=2,19=2,28=1/1;
 99/9=1/99;
 Leave Link    1 at Sun Aug 16 10:52:25 2020, MaxMem=  2147483648 cpu:               6.9 elap:               0.5
 (Enter /cineca/prod/opt/applications/g16/C.01/binary/g16/l101.exe)
 -----
 OptTS
 -----
 Symbolic Z-matrix:
 Charge =  0 Multiplicity = 2
 S                    -0.17065   0.94873  -1.1918 
 N                    -0.29141  -1.22154   0.94875 
 C                     0.9042   -1.1141    0.26361 
 C                     1.06913  -0.23314  -0.81254 
 C                    -4.009     0.06515  -0.50243 
 C                    -3.92441  -0.8606    0.54307 
 C                    -2.69745  -1.28399   1.02051 
 C                    -1.51007  -0.78079   0.47013 
 C                    -1.60339   0.15869  -0.566 
 C                    -2.84713   0.57399  -1.05353 
 C                     1.99673  -1.90632   0.64374 
 C                     2.27917  -0.15201  -1.50469 
 H                    -4.97253   0.38728  -0.87558 
 H                    -4.82937  -1.26196   0.98331 
 H                    -2.6324   -2.01233   1.82151 
 C                     3.20043  -1.80913  -0.0312 
 C                     3.34924  -0.93888  -1.11571 
 H                     4.03316  -2.42667   0.28381 
 H                     4.29156  -0.87378  -1.6441 
 H                    -0.32824  -1.93604   1.66642 
 H                     1.87802  -2.59254   1.47495 
 H                     2.37487   0.54318  -2.33147 
 H                    -2.88929   1.30105  -1.85713 
 O                     0.87022   2.09273   1.68691 
 O                     0.26297   2.17925   0.17154 
 C                     2.26813   1.98089   1.54813 
 H                     2.68509   2.06594   2.55773 
 H                     2.56729   1.01352   1.13133 
 H                     2.67315   2.78899   0.93049 
 
 ITRead=  0  0  0  0  0  0  0  0  0  0  0  0  0  0  0  0  0  0  0  0
 ITRead=  0  0  0  0  0  0  0  0  0
 MicOpt= -1 -1 -1 -1 -1 -1 -1 -1 -1 -1 -1 -1 -1 -1 -1 -1 -1 -1 -1 -1
 MicOpt= -1 -1 -1 -1 -1 -1 -1 -1 -1
 NAtoms=     29 NQM=       29 NQMF=       0 NMMI=      0 NMMIF=      0
                NMic=       0 NMicF=      0.
                    Isotopes and Nuclear Properties:
 (Nuclear quadrupole moments (NQMom) in fm**2, nuclear magnetic moments (NMagM)
  in nuclear magnetons)

  Atom         1           2           3           4           5           6           7           8           9          10
 IAtWgt=          32          14          12          12          12          12          12          12          12          12
 AtmWgt=  31.9720718  14.0030740  12.0000000  12.0000000  12.0000000  12.0000000  12.0000000  12.0000000  12.0000000  12.0000000
 NucSpn=           0           2           0           0           0           0           0           0           0           0
 AtZEff=  -0.0000000  -0.0000000  -0.0000000  -0.0000000  -0.0000000  -0.0000000  -0.0000000  -0.0000000  -0.0000000  -0.0000000
 NQMom=    0.0000000   2.0440000   0.0000000   0.0000000   0.0000000   0.0000000   0.0000000   0.0000000   0.0000000   0.0000000
 NMagM=    0.0000000   0.4037610   0.0000000   0.0000000   0.0000000   0.0000000   0.0000000   0.0000000   0.0000000   0.0000000
 AtZNuc=  16.0000000   7.0000000   6.0000000   6.0000000   6.0000000   6.0000000   6.0000000   6.0000000   6.0000000   6.0000000

  Atom        11          12          13          14          15          16          17          18          19          20
 IAtWgt=          12          12           1           1           1          12          12           1           1           1
 AtmWgt=  12.0000000  12.0000000   1.0078250   1.0078250   1.0078250  12.0000000  12.0000000   1.0078250   1.0078250   1.0078250
 NucSpn=           0           0           1           1           1           0           0           1           1           1
 AtZEff=  -0.0000000  -0.0000000  -0.0000000  -0.0000000  -0.0000000  -0.0000000  -0.0000000  -0.0000000  -0.0000000  -0.0000000
 NQMom=    0.0000000   0.0000000   0.0000000   0.0000000   0.0000000   0.0000000   0.0000000   0.0000000   0.0000000   0.0000000
 NMagM=    0.0000000   0.0000000   2.7928460   2.7928460   2.7928460   0.0000000   0.0000000   2.7928460   2.7928460   2.7928460
 AtZNuc=   6.0000000   6.0000000   1.0000000   1.0000000   1.0000000   6.0000000   6.0000000   1.0000000   1.0000000   1.0000000

  Atom        21          22          23          24          25          26          27          28          29
 IAtWgt=           1           1           1          16          16          12           1           1           1
 AtmWgt=   1.0078250   1.0078250   1.0078250  15.9949146  15.9949146  12.0000000   1.0078250   1.0078250   1.0078250
 NucSpn=           1           1           1           0           0           0           1           1           1
 AtZEff=  -0.0000000  -0.0000000  -0.0000000  -0.0000000  -0.0000000  -0.0000000  -0.0000000  -0.0000000  -0.0000000
 NQMom=    0.0000000   0.0000000   0.0000000   0.0000000   0.0000000   0.0000000   0.0000000   0.0000000   0.0000000
 NMagM=    2.7928460   2.7928460   2.7928460   0.0000000   0.0000000   0.0000000   2.7928460   2.7928460   2.7928460
 AtZNuc=   1.0000000   1.0000000   1.0000000   8.0000000   8.0000000   6.0000000   1.0000000   1.0000000   1.0000000
 Leave Link  101 at Sun Aug 16 10:52:25 2020, MaxMem=  2147483648 cpu:               5.9 elap:               0.4
 (Enter /cineca/prod/opt/applications/g16/C.01/binary/g16/l103.exe)

 GradGradGradGradGradGradGradGradGradGradGradGradGradGradGradGradGradGrad
 Berny optimization.
 Initialization pass.
                           ----------------------------
                           !    Initial Parameters    !
                           ! (Angstroms and Degrees)  !
 --------------------------                            --------------------------
 ! Name  Definition              Value          Derivative Info.                !
 --------------------------------------------------------------------------------
 ! R1    R(1,4)                  1.7543         calculate D2E/DX2 analytically  !
 ! R2    R(1,9)                  1.7517         calculate D2E/DX2 analytically  !
 ! R3    R(1,25)                 1.887          calculate D2E/DX2 analytically  !
 ! R4    R(2,3)                  1.3822         calculate D2E/DX2 analytically  !
 ! R5    R(2,8)                  1.3815         calculate D2E/DX2 analytically  !
 ! R6    R(2,20)                 1.0134         calculate D2E/DX2 analytically  !
 ! R7    R(3,4)                  1.4005         calculate D2E/DX2 analytically  !
 ! R8    R(3,11)                 1.402          calculate D2E/DX2 analytically  !
 ! R9    R(4,12)                 1.3964         calculate D2E/DX2 analytically  !
 ! R10   R(5,6)                  1.399          calculate D2E/DX2 analytically  !
 ! R11   R(5,10)                 1.383          calculate D2E/DX2 analytically  !
 ! R12   R(5,13)                 1.0823         calculate D2E/DX2 analytically  !
 ! R13   R(6,7)                  1.383          calculate D2E/DX2 analytically  !
 ! R14   R(6,14)                 1.0834         calculate D2E/DX2 analytically  !
 ! R15   R(7,8)                  1.4021         calculate D2E/DX2 analytically  !
 ! R16   R(7,15)                 1.0846         calculate D2E/DX2 analytically  !
 ! R17   R(8,9)                  1.4017         calculate D2E/DX2 analytically  !
 ! R18   R(9,10)                 1.3989         calculate D2E/DX2 analytically  !
 ! R19   R(10,23)                1.0845         calculate D2E/DX2 analytically  !
 ! R20   R(11,16)                1.3834         calculate D2E/DX2 analytically  !
 ! R21   R(11,21)                1.0844         calculate D2E/DX2 analytically  !
 ! R22   R(12,17)                1.384          calculate D2E/DX2 analytically  !
 ! R23   R(12,22)                1.0844         calculate D2E/DX2 analytically  !
 ! R24   R(16,17)                1.3984         calculate D2E/DX2 analytically  !
 ! R25   R(16,18)                1.0835         calculate D2E/DX2 analytically  !
 ! R26   R(17,19)                1.0823         calculate D2E/DX2 analytically  !
 ! R27   R(24,25)                1.6348         calculate D2E/DX2 analytically  !
 ! R28   R(24,26)                1.4092         calculate D2E/DX2 analytically  !
 ! R29   R(26,27)                1.0956         calculate D2E/DX2 analytically  !
 ! R30   R(26,28)                1.095          calculate D2E/DX2 analytically  !
 ! R31   R(26,29)                1.0948         calculate D2E/DX2 analytically  !
 ! A1    A(4,1,9)              101.3577         calculate D2E/DX2 analytically  !
 ! A2    A(4,1,25)              96.934          calculate D2E/DX2 analytically  !
 ! A3    A(9,1,25)             102.9406         calculate D2E/DX2 analytically  !
 ! A4    A(3,2,8)              124.5087         calculate D2E/DX2 analytically  !
 ! A5    A(3,2,20)             115.9317         calculate D2E/DX2 analytically  !
 ! A6    A(8,2,20)             115.9919         calculate D2E/DX2 analytically  !
 ! A7    A(2,3,4)              122.1175         calculate D2E/DX2 analytically  !
 ! A8    A(2,3,11)             119.7181         calculate D2E/DX2 analytically  !
 ! A9    A(4,3,11)             118.1643         calculate D2E/DX2 analytically  !
 ! A10   A(1,4,3)              120.4421         calculate D2E/DX2 analytically  !
 ! A11   A(1,4,12)             117.7809         calculate D2E/DX2 analytically  !
 ! A12   A(3,4,12)             121.2972         calculate D2E/DX2 analytically  !
 ! A13   A(6,5,10)             119.3719         calculate D2E/DX2 analytically  !
 ! A14   A(6,5,13)             120.5589         calculate D2E/DX2 analytically  !
 ! A15   A(10,5,13)            120.0682         calculate D2E/DX2 analytically  !
 ! A16   A(5,6,7)              120.9447         calculate D2E/DX2 analytically  !
 ! A17   A(5,6,14)             119.8864         calculate D2E/DX2 analytically  !
 ! A18   A(7,6,14)             119.1666         calculate D2E/DX2 analytically  !
 ! A19   A(6,7,8)              120.3926         calculate D2E/DX2 analytically  !
 ! A20   A(6,7,15)             120.9149         calculate D2E/DX2 analytically  !
 ! A21   A(8,7,15)             118.6919         calculate D2E/DX2 analytically  !
 ! A22   A(2,8,7)              119.7715         calculate D2E/DX2 analytically  !
 ! A23   A(2,8,9)              121.914          calculate D2E/DX2 analytically  !
 ! A24   A(7,8,9)              118.3133         calculate D2E/DX2 analytically  !
 ! A25   A(1,9,8)              120.7898         calculate D2E/DX2 analytically  !
 ! A26   A(1,9,10)             117.9544         calculate D2E/DX2 analytically  !
 ! A27   A(8,9,10)             121.0481         calculate D2E/DX2 analytically  !
 ! A28   A(5,10,9)             119.9218         calculate D2E/DX2 analytically  !
 ! A29   A(5,10,23)            120.6162         calculate D2E/DX2 analytically  !
 ! A30   A(9,10,23)            119.4599         calculate D2E/DX2 analytically  !
 ! A31   A(3,11,16)            120.4001         calculate D2E/DX2 analytically  !
 ! A32   A(3,11,21)            118.6913         calculate D2E/DX2 analytically  !
 ! A33   A(16,11,21)           120.9085         calculate D2E/DX2 analytically  !
 ! A34   A(4,12,17)            119.8446         calculate D2E/DX2 analytically  !
 ! A35   A(4,12,22)            119.4468         calculate D2E/DX2 analytically  !
 ! A36   A(17,12,22)           120.6982         calculate D2E/DX2 analytically  !
 ! A37   A(11,16,17)           120.9743         calculate D2E/DX2 analytically  !
 ! A38   A(11,16,18)           119.1316         calculate D2E/DX2 analytically  !
 ! A39   A(17,16,18)           119.8911         calculate D2E/DX2 analytically  !
 ! A40   A(12,17,16)           119.3068         calculate D2E/DX2 analytically  !
 ! A41   A(12,17,19)           120.1158         calculate D2E/DX2 analytically  !
 ! A42   A(16,17,19)           120.5763         calculate D2E/DX2 analytically  !
 ! A43   A(25,24,26)           106.3428         calculate D2E/DX2 analytically  !
 ! A44   A(1,25,24)            136.0992         calculate D2E/DX2 analytically  !
 ! A45   A(24,26,27)           106.2965         calculate D2E/DX2 analytically  !
 ! A46   A(24,26,28)           112.2477         calculate D2E/DX2 analytically  !
 ! A47   A(24,26,29)           111.3438         calculate D2E/DX2 analytically  !
 ! A48   A(27,26,28)           108.3826         calculate D2E/DX2 analytically  !
 ! A49   A(27,26,29)           108.7703         calculate D2E/DX2 analytically  !
 ! A50   A(28,26,29)           109.6507         calculate D2E/DX2 analytically  !
 ! D1    D(9,1,4,3)            -26.823          calculate D2E/DX2 analytically  !
 ! D2    D(9,1,4,12)           161.0213         calculate D2E/DX2 analytically  !
 ! D3    D(25,1,4,3)            77.9225         calculate D2E/DX2 analytically  !
 ! D4    D(25,1,4,12)          -94.2332         calculate D2E/DX2 analytically  !
 ! D5    D(4,1,9,8)             25.6591         calculate D2E/DX2 analytically  !
 ! D6    D(4,1,9,10)          -159.5236         calculate D2E/DX2 analytically  !
 ! D7    D(25,1,9,8)           -74.2741         calculate D2E/DX2 analytically  !
 ! D8    D(25,1,9,10)          100.5432         calculate D2E/DX2 analytically  !
 ! D9    D(4,1,25,24)          -31.7181         calculate D2E/DX2 analytically  !
 ! D10   D(9,1,25,24)           71.6672         calculate D2E/DX2 analytically  !
 ! D11   D(8,2,3,4)             17.88           calculate D2E/DX2 analytically  !
 ! D12   D(8,2,3,11)          -162.0335         calculate D2E/DX2 analytically  !
 ! D13   D(20,2,3,4)           175.6492         calculate D2E/DX2 analytically  !
 ! D14   D(20,2,3,11)           -4.2643         calculate D2E/DX2 analytically  !
 ! D15   D(3,2,8,7)            160.3645         calculate D2E/DX2 analytically  !
 ! D16   D(3,2,8,9)            -19.2416         calculate D2E/DX2 analytically  !
 ! D17   D(20,2,8,7)             2.6073         calculate D2E/DX2 analytically  !
 ! D18   D(20,2,8,9)          -176.9988         calculate D2E/DX2 analytically  !
 ! D19   D(2,3,4,1)              9.0342         calculate D2E/DX2 analytically  !
 ! D20   D(2,3,4,12)          -179.0896         calculate D2E/DX2 analytically  !
 ! D21   D(11,3,4,1)          -171.051          calculate D2E/DX2 analytically  !
 ! D22   D(11,3,4,12)            0.8251         calculate D2E/DX2 analytically  !
 ! D23   D(2,3,11,16)         -179.9257         calculate D2E/DX2 analytically  !
 ! D24   D(2,3,11,21)            0.0091         calculate D2E/DX2 analytically  !
 ! D25   D(4,3,11,16)            0.1574         calculate D2E/DX2 analytically  !
 ! D26   D(4,3,11,21)         -179.9078         calculate D2E/DX2 analytically  !
 ! D27   D(1,4,12,17)          171.123          calculate D2E/DX2 analytically  !
 ! D28   D(1,4,12,22)           -7.7116         calculate D2E/DX2 analytically  !
 ! D29   D(3,4,12,17)           -0.9619         calculate D2E/DX2 analytically  !
 ! D30   D(3,4,12,22)         -179.7966         calculate D2E/DX2 analytically  !
 ! D31   D(10,5,6,7)            -0.7648         calculate D2E/DX2 analytically  !
 ! D32   D(10,5,6,14)          179.7852         calculate D2E/DX2 analytically  !
 ! D33   D(13,5,6,7)           179.596          calculate D2E/DX2 analytically  !
 ! D34   D(13,5,6,14)            0.146          calculate D2E/DX2 analytically  !
 ! D35   D(6,5,10,9)             0.1558         calculate D2E/DX2 analytically  !
 ! D36   D(6,5,10,23)         -179.3063         calculate D2E/DX2 analytically  !
 ! D37   D(13,5,10,9)          179.7968         calculate D2E/DX2 analytically  !
 ! D38   D(13,5,10,23)           0.3347         calculate D2E/DX2 analytically  !
 ! D39   D(5,6,7,8)              0.5856         calculate D2E/DX2 analytically  !
 ! D40   D(5,6,7,15)          -179.1202         calculate D2E/DX2 analytically  !
 ! D41   D(14,6,7,8)          -179.9605         calculate D2E/DX2 analytically  !
 ! D42   D(14,6,7,15)            0.3338         calculate D2E/DX2 analytically  !
 ! D43   D(6,7,8,2)           -179.4233         calculate D2E/DX2 analytically  !
 ! D44   D(6,7,8,9)              0.1969         calculate D2E/DX2 analytically  !
 ! D45   D(15,7,8,2)             0.2889         calculate D2E/DX2 analytically  !
 ! D46   D(15,7,8,9)           179.9091         calculate D2E/DX2 analytically  !
 ! D47   D(2,8,9,1)             -6.5371         calculate D2E/DX2 analytically  !
 ! D48   D(2,8,9,10)           178.8069         calculate D2E/DX2 analytically  !
 ! D49   D(7,8,9,1)            173.8513         calculate D2E/DX2 analytically  !
 ! D50   D(7,8,9,10)            -0.8048         calculate D2E/DX2 analytically  !
 ! D51   D(1,9,10,5)          -174.1705         calculate D2E/DX2 analytically  !
 ! D52   D(1,9,10,23)            5.2979         calculate D2E/DX2 analytically  !
 ! D53   D(8,9,10,5)             0.6328         calculate D2E/DX2 analytically  !
 ! D54   D(8,9,10,23)         -179.8989         calculate D2E/DX2 analytically  !
 ! D55   D(3,11,16,17)          -1.0101         calculate D2E/DX2 analytically  !
 ! D56   D(3,11,16,18)         179.6232         calculate D2E/DX2 analytically  !
 ! D57   D(21,11,16,17)        179.0566         calculate D2E/DX2 analytically  !
 ! D58   D(21,11,16,18)         -0.3101         calculate D2E/DX2 analytically  !
 ! D59   D(4,12,17,16)           0.1049         calculate D2E/DX2 analytically  !
 ! D60   D(4,12,17,19)        -179.5122         calculate D2E/DX2 analytically  !
 ! D61   D(22,12,17,16)        178.9247         calculate D2E/DX2 analytically  !
 ! D62   D(22,12,17,19)         -0.6924         calculate D2E/DX2 analytically  !
 ! D63   D(11,16,17,12)          0.8759         calculate D2E/DX2 analytically  !
 ! D64   D(11,16,17,19)       -179.5088         calculate D2E/DX2 analytically  !
 ! D65   D(18,16,17,12)       -179.7622         calculate D2E/DX2 analytically  !
 ! D66   D(18,16,17,19)         -0.1469         calculate D2E/DX2 analytically  !
 ! D67   D(26,24,25,1)          81.556          calculate D2E/DX2 analytically  !
 ! D68   D(25,24,26,27)        172.1743         calculate D2E/DX2 analytically  !
 ! D69   D(25,24,26,28)        -69.4937         calculate D2E/DX2 analytically  !
 ! D70   D(25,24,26,29)         53.8687         calculate D2E/DX2 analytically  !
 --------------------------------------------------------------------------------
 Trust Radius=3.00D-01 FncErr=1.00D-07 GrdErr=1.00D-06 EigMax=2.50D+02 EigMin=1.00D-04
 Number of steps in this run=    161 maximum allowed number of steps=    174.
 Search for a saddle point of order  1.
 GradGradGradGradGradGradGradGradGradGradGradGradGradGradGradGradGradGrad

 Leave Link  103 at Sun Aug 16 10:52:25 2020, MaxMem=  2147483648 cpu:               0.6 elap:               0.1
 (Enter /cineca/prod/opt/applications/g16/C.01/binary/g16/l202.exe)
                          Input orientation:                          
 ---------------------------------------------------------------------
 Center     Atomic      Atomic             Coordinates (Angstroms)
 Number     Number       Type             X           Y           Z
 ---------------------------------------------------------------------
      1         16           0       -0.170651    0.948734   -1.191797
      2          7           0       -0.291407   -1.221538    0.948750
      3          6           0        0.904196   -1.114101    0.263607
      4          6           0        1.069125   -0.233140   -0.812535
      5          6           0       -4.008996    0.065150   -0.502425
      6          6           0       -3.924408   -0.860603    0.543070
      7          6           0       -2.697453   -1.283988    1.020508
      8          6           0       -1.510071   -0.780789    0.470132
      9          6           0       -1.603393    0.158689   -0.565995
     10          6           0       -2.847133    0.573986   -1.053533
     11          6           0        1.996725   -1.906321    0.643737
     12          6           0        2.279175   -0.152009   -1.504686
     13          1           0       -4.972533    0.387280   -0.875575
     14          1           0       -4.829373   -1.261963    0.983305
     15          1           0       -2.632395   -2.012331    1.821506
     16          6           0        3.200431   -1.809132   -0.031199
     17          6           0        3.349241   -0.938878   -1.115710
     18          1           0        4.033158   -2.426666    0.283813
     19          1           0        4.291559   -0.873778   -1.644096
     20          1           0       -0.328240   -1.936038    1.666419
     21          1           0        1.878016   -2.592541    1.474946
     22          1           0        2.374865    0.543182   -2.331473
     23          1           0       -2.889293    1.301046   -1.857130
     24          8           0        0.870223    2.092733    1.686914
     25          8           0        0.262969    2.179249    0.171539
     26          6           0        2.268129    1.980889    1.548133
     27          1           0        2.685092    2.065941    2.557728
     28          1           0        2.567288    1.013517    1.131332
     29          1           0        2.673154    2.788994    0.930488
 ---------------------------------------------------------------------
                    Distance matrix (angstroms):
                    1          2          3          4          5
     1  S    0.000000
     2  N    3.050673   0.000000
     3  C    2.743863   1.382183   0.000000
     4  C    1.754340   2.435180   1.400491   0.000000
     5  C    3.998606   4.193083   5.110469   5.096318   0.000000
     6  C    4.513774   3.673356   4.843323   5.212173   1.399012
     7  C    4.032874   2.407926   3.684242   4.318731   2.420670
     8  C    2.747236   1.381476   2.445902   2.932133   2.811780
     9  C    1.751727   2.433267   2.931934   2.712317   2.408260
    10  C    2.706124   3.710092   4.319371   4.005822   1.382953
    11  C    4.027163   2.407802   1.402045   2.404310   6.424101
    12  C    2.703920   3.710948   2.437837   1.396380   6.371246
    13  H    4.844925   5.275358   6.171533   6.073757   1.082318
    14  H    5.596601   4.538278   5.780453   6.251064   2.154447
    15  H    4.889589   2.620550   3.967536   4.879031   3.407582
    16  C    4.507439   3.674030   2.417162   2.763458   7.463968
    17  C    3.994810   4.194784   2.812732   2.406015   7.451701
    18  H    5.589522   4.538319   3.393175   3.846950   8.455978
    19  H    4.841223   5.277060   3.895037   3.389099   8.431145
    20  H    4.064006   1.013368   2.040186   3.316279   4.717690
    21  H    4.883563   2.619719   2.145100   3.384324   6.755015
    22  H    2.818330   4.580732   3.412315   2.148210   6.657899
    23  H    2.820958   4.580983   4.972024   4.371954   2.148581
    24  O    3.267894   3.588685   3.508667   3.420014   5.719360
    25  O    1.887029   3.532243   3.356457   2.727253   4.813868
    26  C    3.810539   4.143190   3.617911   3.451418   6.875838
    27  H    4.843796   4.717613   4.306652   4.388143   7.627484
    28  H    3.591300   3.633310   2.836473   2.752683   6.842227
    29  H    3.997234   4.987316   4.336830   3.839835   7.356881
                    6          7          8          9         10
     6  C    0.000000
     7  C    1.382975   0.000000
     8  C    2.416757   1.402141   0.000000
     9  C    2.766964   2.407338   1.401744   0.000000
    10  C    2.401605   2.788569   2.438177   1.398947   0.000000
    11  C    6.013608   4.750217   3.687083   4.323028   5.700492
    12  C    6.571138   5.694278   4.318988   4.006496   5.197080
    13  H    2.160632   3.400626   3.894092   3.391047   2.140994
    14  H    1.083447   2.132358   3.393028   3.850393   3.383592
    15  H    2.151784   1.084580   2.145348   3.387083   3.873112
    16  C    7.210605   6.013892   4.847438   5.218721   6.580080
    17  C    7.460807   6.422230   5.113981   5.102492   6.378689
    18  H    8.114347   6.866553   5.785414   6.259149   7.624356
    19  H    8.502116   7.490973   6.175558   6.081015   7.307921
    20  H    3.918022   2.540776   2.040203   3.316258   4.476961
    21  H    6.126673   4.780559   3.971301   4.884149   6.224719
    22  H    7.065016   6.348444   4.969368   4.369357   5.376183
    23  H    3.391924   3.872984   3.413567   2.150709   1.084510
    24  O    5.746221   4.957283   3.924728   3.864570   4.861623
    25  O    5.187761   4.634529   3.463330   2.847793   3.708154
    26  C    6.887071   5.966139   4.802473   4.772697   5.908803
    27  H    7.503932   6.523562   5.482821   5.637939   6.772935
    28  H    6.782366   5.745286   4.503507   4.583255   5.855150
    29  H    7.549667   6.740972   5.518573   5.238971   6.270261
                   11         12         13         14         15
    11  C    0.000000
    12  C    2.788030   0.000000
    13  H    7.492628   7.298896   0.000000
    14  H    6.864847   7.612723   2.489163   0.000000
    15  H    4.777775   6.216741   4.302165   2.468268   0.000000
    16  C    1.383435   2.401236   8.504971   8.112112   6.123370
    17  C    2.420929   1.384018   8.430201   8.449851   6.749778
    18  H    2.132455   3.383674   9.506048   8.966063   6.853158
    19  H    3.400969   2.142446   9.381060   9.499754   7.826100
    20  H    2.540123   4.476302   5.781782   4.602306   2.310628
    21  H    1.084388   3.872381   7.831622   6.855743   4.560763
    22  H    3.872329   1.084446   7.491876   8.133102   6.989316
    23  H    6.357257   5.380395   2.477561   4.289638   4.957502
    24  O    4.283650   4.148533   6.603993   6.650898   5.397962
    25  O    4.463268   3.508501   5.631881   6.199423   5.354892
    26  C    4.000249   3.724121   7.800073   7.823660   6.327375
    27  H    4.462743   4.646211   8.558311   8.367851   6.741661
    28  H    3.014755   2.896558   7.827436   7.740175   6.055477
    29  H    4.752448   3.838592   8.215024   8.526485   7.210789
                   16         17         18         19         20
    16  C    0.000000
    17  C    1.398446   0.000000
    18  H    1.083520   2.154047   0.000000
    19  H    2.160297   1.082309   2.488989   0.000000
    20  H    3.917848   4.717885   4.601533   5.781907   0.000000
    21  H    2.151972   3.407433   2.467985   4.302065   2.309810
    22  H    3.392079   2.150347   4.290647   2.480721   5.425537
    23  H    7.077568   6.669803   8.148607   7.505989   5.427071
    24  O    4.858635   4.815693   5.691908   5.621508   4.203300
    25  O    4.957516   4.572177   5.953267   5.370944   4.418120
    26  C    4.210432   4.097548   4.913285   4.736425   4.700791
    27  H    4.688743   4.792095   5.212628   5.373826   5.088265
    28  H    3.117643   3.077742   3.834309   3.773327   4.167766
    29  H    4.727116   4.305932   5.428712   4.760632   5.645874
                   21         22         23         24         25
    21  H    0.000000
    22  H    4.956656   0.000000
    23  H    6.999285   5.339543   0.000000
    24  O    4.797121   4.562071   5.226947   0.000000
    25  O    5.203578   3.660859   3.850129   1.634810   0.000000
    26  C    4.590622   4.138809   6.217476   1.409223   2.440292
    27  H    4.850283   5.130236   7.151909   2.013153   3.401972
    28  H    3.687387   3.499894   6.227990   2.086482   2.754999
    29  H    5.467138   3.971528   6.397313   2.075457   2.599382
                   26         27         28         29
    26  C    0.000000
    27  H    1.095616   0.000000
    28  H    1.095001   1.776536   0.000000
    29  H    1.094790   1.780690   1.789934   0.000000
 Stoichiometry    C13H12NO2S(2)
 Framework group  C1[X(C13H12NO2S)]
 Deg. of freedom    81
 Full point group                 C1      NOp   1
 Largest Abelian subgroup         C1      NOp   1
 Largest concise Abelian subgroup C1      NOp   1
                         Standard orientation:                         
 ---------------------------------------------------------------------
 Center     Atomic      Atomic             Coordinates (Angstroms)
 Number     Number       Type             X           Y           Z
 ---------------------------------------------------------------------
      1         16           0       -0.170651    0.948734   -1.191797
      2          7           0       -0.291407   -1.221538    0.948750
      3          6           0        0.904196   -1.114101    0.263607
      4          6           0        1.069125   -0.233140   -0.812535
      5          6           0       -4.008996    0.065150   -0.502425
      6          6           0       -3.924408   -0.860603    0.543070
      7          6           0       -2.697453   -1.283988    1.020508
      8          6           0       -1.510071   -0.780789    0.470132
      9          6           0       -1.603393    0.158689   -0.565995
     10          6           0       -2.847133    0.573986   -1.053533
     11          6           0        1.996725   -1.906321    0.643737
     12          6           0        2.279175   -0.152009   -1.504686
     13          1           0       -4.972533    0.387280   -0.875575
     14          1           0       -4.829373   -1.261963    0.983305
     15          1           0       -2.632395   -2.012331    1.821506
     16          6           0        3.200431   -1.809132   -0.031199
     17          6           0        3.349241   -0.938878   -1.115710
     18          1           0        4.033158   -2.426666    0.283813
     19          1           0        4.291559   -0.873778   -1.644096
     20          1           0       -0.328240   -1.936038    1.666419
     21          1           0        1.878016   -2.592541    1.474946
     22          1           0        2.374865    0.543182   -2.331473
     23          1           0       -2.889293    1.301046   -1.857130
     24          8           0        0.870223    2.092733    1.686914
     25          8           0        0.262969    2.179249    0.171539
     26          6           0        2.268129    1.980889    1.548133
     27          1           0        2.685092    2.065941    2.557728
     28          1           0        2.567288    1.013517    1.131332
     29          1           0        2.673154    2.788994    0.930488
 ---------------------------------------------------------------------
 Rotational constants (GHZ):           0.7339521           0.3424558           0.3065239
 Leave Link  202 at Sun Aug 16 10:52:25 2020, MaxMem=  2147483648 cpu:               0.6 elap:               0.1
 (Enter /cineca/prod/opt/applications/g16/C.01/binary/g16/l301.exe)
 Standard basis: 6-311++G(d,p) (5D, 7F)
 Ernie: Thresh=  0.10000D-02 Tol=  0.10000D-05 Strict=F.
 There are   483 symmetry adapted cartesian basis functions of A   symmetry.
 There are   466 symmetry adapted basis functions of A   symmetry.
   466 basis functions,   734 primitive gaussians,   483 cartesian basis functions
    65 alpha electrons       64 beta electrons
       nuclear repulsion energy      1326.8689174612 Hartrees.
 IExCor= 4336 DFT=T Ex+Corr=M062X ExCW=0 ScaHFX=  0.540000
 ScaDFX=  1.000000  1.000000  1.000000  1.000000 ScalE2=  1.000000  1.000000
 IRadAn=      5 IRanWt=     -1 IRanGd=            0 ICorTp=0 IEmpDi=  4
 NAtoms=   29 NActive=   29 NUniq=   29 SFac= 1.00D+00 NAtFMM=   60 NAOKFM=F Big=F
 Integral buffers will be    131072 words long.
 Raffenetti 2 integral format.
 Two-electron integral symmetry is turned on.
 Force inversion solution in PCM.
 ------------------------------------------------------------------------------
 Polarizable Continuum Model (PCM)
 =================================
 Model                : PCM.
 Atomic radii         : SMD-Coulomb.
 Polarization charges : Total charges.
 Charge compensation  : None.
 Solution method      : Matrix inversion.
 Cavity type          : VdW (van der Waals Surface) (Alpha=1.000).
 Cavity algorithm     : GePol (No added spheres)
                        Default sphere list used, NSphG=   29.
                        Lebedev-Laikov grids with approx.  5.0 points / Ang**2.
                        Smoothing algorithm: York/Karplus (Gamma=1.0000).
                        Polarization charges: spherical gaussians, with
                                              point-specific exponents (IZeta= 3).
                        Self-potential: point-specific (ISelfS= 7).
                        Self-field    : sphere-specific E.n sum rule (ISelfD= 2).
 1st derivatives      : Analytical E(r).r(x)/FMM algorithm (CHGder, D1EAlg=3).
                        Cavity 1st derivative terms included.
 2nd derivatives      : Analytical E(r).r(xy)/FMM algorithm (CHGder, D2EAlg=3).
                        Cavity 2nd derivative terms included.
 Solvent              : PentylEthanoate, Eps=   4.729700 Eps(inf)=   1.966445
 ------------------------------------------------------------------------------
 GePol: Number of generator spheres                  =      29
 GePol: Total number of spheres                      =      29
 GePol: Number of exposed spheres                    =      29 (100.00%)
 GePol: Number of points                             =    2317
 GePol: Average weight of points                     =       0.12
 GePol: Minimum weight of points                     =   0.11D-09
 GePol: Maximum weight of points                     =    0.19854
 GePol: Number of points with low weight             =     124
 GePol: Fraction of low-weight points (<1% of avg)   =       5.35%
 GePol: Cavity surface area                          =    267.614 Ang**2
 GePol: Cavity volume                                =    275.472 Ang**3
 ------------------------------------------------------------------------------
 Atomic radii for non-electrostatic terms: SMD-CDS.
 ------------------------------------------------------------------------------
 PCM non-electrostatic energy =        -0.0078993785 Hartrees.
 Nuclear repulsion after PCM non-electrostatic terms =     1326.8610180827 Hartrees.
 Leave Link  301 at Sun Aug 16 10:52:26 2020, MaxMem=  2147483648 cpu:               1.8 elap:               0.2
 (Enter /cineca/prod/opt/applications/g16/C.01/binary/g16/l302.exe)
 NPDir=0 NMtPBC=     1 NCelOv=     1 NCel=       1 NClECP=     1 NCelD=      1
         NCelK=      1 NCelE2=     1 NClLst=     1 CellRange=     0.0.
 One-electron integrals computed using PRISM.
 One-electron integral symmetry used in STVInt
 NBasis=   466 RedAO= T EigKep=  1.22D-06  NBF=   466
 NBsUse=   463 1.00D-06 EigRej=  4.41D-07 NBFU=   463
 Precomputing XC quadrature grid using
 IXCGrd= 4 IRadAn=           5 IRanWt=          -1 IRanGd=           0 AccXCQ= 0.00D+00.
 Generated NRdTot=       0 NPtTot=           0 NUsed=           0 NTot=          32
 NSgBfM=   481   481   481   481   481 MxSgAt=    29 MxSgA2=    29.
 Leave Link  302 at Sun Aug 16 10:52:26 2020, MaxMem=  2147483648 cpu:              13.5 elap:               0.9
 (Enter /cineca/prod/opt/applications/g16/C.01/binary/g16/l303.exe)
 DipDrv:  MaxL=1.
 Leave Link  303 at Sun Aug 16 10:52:27 2020, MaxMem=  2147483648 cpu:               2.1 elap:               0.2
 (Enter /cineca/prod/opt/applications/g16/C.01/binary/g16/l401.exe)
 ExpMin= 3.60D-02 ExpMax= 9.34D+04 ExpMxC= 3.17D+03 IAcc=3 IRadAn=         5 AccDes= 0.00D+00
 Harris functional with IExCor= 1009 and IRadAn=       5 diagonalized for initial guess.
 HarFok:  IExCor= 1009 AccDes= 0.00D+00 IRadAn=         5 IDoV= 1 UseB2=F ITyADJ=14
 ICtDFT=  3500011 ScaDFX=  1.000000  1.000000  1.000000  1.000000
 FoFCou: FMM=F IPFlag=           0 FMFlag=      100000 FMFlg1=           0
         NFxFlg=           0 DoJE=T BraDBF=F KetDBF=T FulRan=T
         wScrn=  0.000000 ICntrl=       500 IOpCl=  0 I1Cent=   200000004 NGrid=           0
         NMat0=    1 NMatS0=      1 NMatT0=    0 NMatD0=    1 NMtDS0=    0 NMtDT0=    0
 Petite list used in FoFCou.
 Harris En= -1105.24317287789    
 JPrj=0 DoOrth=F DoCkMO=F.
 Initial guess <Sx>= 0.0000 <Sy>= 0.0000 <Sz>= 0.5000 <S**2>= 0.7500 S= 0.5000
 Leave Link  401 at Sun Aug 16 10:52:28 2020, MaxMem=  2147483648 cpu:              24.4 elap:               1.6
 (Enter /cineca/prod/opt/applications/g16/C.01/binary/g16/l502.exe)
 Integral symmetry usage will be decided dynamically.
 UHF open shell SCF:
 Using DIIS extrapolation, IDIIS=  1040.
 NGot=  2147483648 LenX=  2147004077 LenY=  2146770305
 Requested convergence on RMS density matrix=1.00D-08 within 128 cycles.
 Requested convergence on MAX density matrix=1.00D-06.
 Requested convergence on             energy=1.00D-06.
 No special actions if energy rises.
 Fock matrices will be formed incrementally for  20 cycles.

 Cycle   1  Pass 1  IDiag  1:
 FoFJK:  IHMeth= 1 ICntrl=       0 DoSepK=F KAlg= 0 I1Cent=           0 FoldK=F
 IRaf= 880000000 NMat=       1 IRICut=       1 DoRegI=T DoRafI=F ISym2E= 0 IDoP0=0 IntGTp=1.
 FoFCou: FMM=F IPFlag=           0 FMFlag=      100000 FMFlg1=           0
         NFxFlg=           0 DoJE=F BraDBF=F KetDBF=F FulRan=T
         wScrn=  0.000000 ICntrl=         0 IOpCl=  1 I1Cent=           0 NGrid=           0
         NMat0=    1 NMatS0=      1 NMatT0=    0 NMatD0=    1 NMtDS0=    0 NMtDT0=    0
 Symmetry not used in FoFCou.
 Inv3:  Mode=1 IEnd=    16105467.
 Iteration    1 A*A^-1 deviation from unit magnitude is 3.66D-15 for    372.
 Iteration    1 A*A^-1 deviation from orthogonality  is 3.06D-15 for   1239    764.
 Iteration    1 A^-1*A deviation from unit magnitude is 3.55D-15 for    372.
 Iteration    1 A^-1*A deviation from orthogonality  is 2.99D-15 for    825    759.
 E= -1105.19801475793    
 DIIS: error= 2.27D-02 at cycle   1 NSaved=   1.
 NSaved= 1 IEnMin= 1 EnMin= -1105.19801475793     IErMin= 1 ErrMin= 2.27D-02
 ErrMax= 2.27D-02  0.00D+00 EMaxC= 1.00D-01 BMatC= 2.54D+00 BMatP= 2.54D+00
 IDIUse=3 WtCom= 7.73D-01 WtEn= 2.27D-01
 Coeff-Com:  0.100D+01
 Coeff-En:   0.100D+01
 Coeff:      0.100D+01
 Gap=     0.226 Goal=   None    Shift=    0.000
 Gap=     0.195 Goal=   None    Shift=    0.000
 GapD=    0.195 DampG=1.000 DampE=0.500 DampFc=0.5000 IDamp=-1.
 Damping current iteration by 5.00D-01
 RMSDP=1.86D-01 MaxDP=1.36D+01              OVMax= 3.58D-01

 Cycle   2  Pass 1  IDiag  1:
 RMSU=  7.02D-02    CP:  1.61D+00
 E= -1105.42283999811     Delta-E=       -0.224825240179 Rises=F Damp=T
 DIIS: error= 7.71D-03 at cycle   2 NSaved=   2.
 NSaved= 2 IEnMin= 2 EnMin= -1105.42283999811     IErMin= 2 ErrMin= 7.71D-03
 ErrMax= 7.71D-03  0.00D+00 EMaxC= 1.00D-01 BMatC= 2.51D-01 BMatP= 2.54D+00
 IDIUse=3 WtCom= 9.23D-01 WtEn= 7.71D-02
 Coeff-Com:  0.824D-02 0.992D+00
 Coeff-En:   0.955D-01 0.904D+00
 Coeff:      0.150D-01 0.985D+00
 Gap=     0.319 Goal=   None    Shift=    0.000
 Gap=     0.231 Goal=   None    Shift=    0.000
 RMSDP=6.98D-02 MaxDP=4.49D+00 DE=-2.25D-01 OVMax= 2.84D-01

 Cycle   3  Pass 1  IDiag  1:
 RMSU=  2.97D-02    CP:  1.16D+00  3.68D-01
 E= -1105.67840543096     Delta-E=       -0.255565432854 Rises=F Damp=F
 DIIS: error= 9.30D-03 at cycle   3 NSaved=   3.
 NSaved= 3 IEnMin= 3 EnMin= -1105.67840543096     IErMin= 2 ErrMin= 7.71D-03
 ErrMax= 9.30D-03  0.00D+00 EMaxC= 1.00D-01 BMatC= 1.80D-01 BMatP= 2.51D-01
 IDIUse=3 WtCom= 9.07D-01 WtEn= 9.30D-02
 Coeff-Com: -0.842D-01 0.486D+00 0.599D+00
 Coeff-En:   0.000D+00 0.000D+00 0.100D+01
 Coeff:     -0.764D-01 0.441D+00 0.636D+00
 Gap=     0.197 Goal=   None    Shift=    0.000
 Gap=     0.217 Goal=   None    Shift=    0.000
 RMSDP=3.09D-02 MaxDP=2.50D+00 DE=-2.56D-01 OVMax= 1.28D-01

 Cycle   4  Pass 1  IDiag  1:
 RMSU=  7.02D-03    CP:  1.38D+00  6.56D-01  1.07D+00
 E= -1105.71261837764     Delta-E=       -0.034212946678 Rises=F Damp=F
 DIIS: error= 4.02D-03 at cycle   4 NSaved=   4.
 NSaved= 4 IEnMin= 4 EnMin= -1105.71261837764     IErMin= 4 ErrMin= 4.02D-03
 ErrMax= 4.02D-03  0.00D+00 EMaxC= 1.00D-01 BMatC= 3.89D-02 BMatP= 1.80D-01
 IDIUse=3 WtCom= 9.60D-01 WtEn= 4.02D-02
 Coeff-Com: -0.355D-01 0.102D+00 0.354D+00 0.579D+00
 Coeff-En:   0.000D+00 0.000D+00 0.140D+00 0.860D+00
 Coeff:     -0.341D-01 0.981D-01 0.345D+00 0.591D+00
 Gap=     0.205 Goal=   None    Shift=    0.000
 Gap=     0.205 Goal=   None    Shift=    0.000
 RMSDP=1.40D-02 MaxDP=1.21D+00 DE=-3.42D-02 OVMax= 3.48D-02

 Cycle   5  Pass 1  IDiag  1:
 RMSU=  2.21D-03    CP:  1.27D+00  5.52D-01  1.11D+00  6.13D-01
 E= -1105.72088688004     Delta-E=       -0.008268502401 Rises=F Damp=F
 DIIS: error= 8.17D-04 at cycle   5 NSaved=   5.
 NSaved= 5 IEnMin= 5 EnMin= -1105.72088688004     IErMin= 5 ErrMin= 8.17D-04
 ErrMax= 8.17D-04  0.00D+00 EMaxC= 1.00D-01 BMatC= 1.01D-03 BMatP= 3.89D-02
 IDIUse=3 WtCom= 9.92D-01 WtEn= 8.17D-03
 Coeff-Com: -0.258D-02-0.640D-02 0.701D-01 0.178D+00 0.760D+00
 Coeff-En:   0.000D+00 0.000D+00 0.000D+00 0.000D+00 0.100D+01
 Coeff:     -0.256D-02-0.634D-02 0.695D-01 0.177D+00 0.762D+00
 Gap=     0.202 Goal=   None    Shift=    0.000
 Gap=     0.202 Goal=   None    Shift=    0.000
 RMSDP=2.69D-03 MaxDP=2.97D-01 DE=-8.27D-03 OVMax= 1.12D-02

 Cycle   6  Pass 1  IDiag  1:
 RMSU=  1.31D-03    CP:  1.26D+00  5.32D-01  1.17D+00  6.53D-01  1.18D+00
 E= -1105.72128675066     Delta-E=       -0.000399870620 Rises=F Damp=F
 DIIS: error= 5.17D-04 at cycle   6 NSaved=   6.
 NSaved= 6 IEnMin= 6 EnMin= -1105.72128675066     IErMin= 6 ErrMin= 5.17D-04
 ErrMax= 5.17D-04  0.00D+00 EMaxC= 1.00D-01 BMatC= 2.62D-04 BMatP= 1.01D-03
 IDIUse=3 WtCom= 9.95D-01 WtEn= 5.17D-03
 Coeff-Com:  0.539D-02-0.180D-01-0.246D-01-0.308D-01 0.275D+00 0.793D+00
 Coeff-En:   0.000D+00 0.000D+00 0.000D+00 0.000D+00 0.000D+00 0.100D+01
 Coeff:      0.536D-02-0.179D-01-0.244D-01-0.306D-01 0.274D+00 0.794D+00
 Gap=     0.204 Goal=   None    Shift=    0.000
 Gap=     0.203 Goal=   None    Shift=    0.000
 RMSDP=1.49D-03 MaxDP=1.36D-01 DE=-4.00D-04 OVMax= 7.86D-03

 Cycle   7  Pass 1  IDiag  1:
 RMSU=  9.32D-04    CP:  1.26D+00  5.25D-01  1.19D+00  6.73D-01  1.47D+00
                    CP:  1.33D+00
 E= -1105.72141562189     Delta-E=       -0.000128871227 Rises=F Damp=F
 DIIS: error= 2.78D-04 at cycle   7 NSaved=   7.
 NSaved= 7 IEnMin= 7 EnMin= -1105.72141562189     IErMin= 7 ErrMin= 2.78D-04
 ErrMax= 2.78D-04  0.00D+00 EMaxC= 1.00D-01 BMatC= 8.75D-05 BMatP= 2.62D-04
 IDIUse=3 WtCom= 9.97D-01 WtEn= 2.78D-03
 Coeff-Com:  0.358D-02-0.826D-02-0.274D-01-0.609D-01-0.603D-01 0.396D+00
 Coeff-Com:  0.757D+00
 Coeff-En:   0.000D+00 0.000D+00 0.000D+00 0.000D+00 0.000D+00 0.000D+00
 Coeff-En:   0.100D+01
 Coeff:      0.357D-02-0.824D-02-0.273D-01-0.607D-01-0.601D-01 0.395D+00
 Coeff:      0.758D+00
 Gap=     0.205 Goal=   None    Shift=    0.000
 Gap=     0.203 Goal=   None    Shift=    0.000
 RMSDP=1.01D-03 MaxDP=9.89D-02 DE=-1.29D-04 OVMax= 4.79D-03

 Cycle   8  Pass 1  IDiag  1:
 RMSU=  2.61D-04    CP:  1.25D+00  5.18D-01  1.19D+00  6.70D-01  1.61D+00
                    CP:  1.57D+00  1.14D+00
 E= -1105.72146161956     Delta-E=       -0.000045997667 Rises=F Damp=F
 DIIS: error= 1.77D-04 at cycle   8 NSaved=   8.
 NSaved= 8 IEnMin= 8 EnMin= -1105.72146161956     IErMin= 8 ErrMin= 1.77D-04
 ErrMax= 1.77D-04  0.00D+00 EMaxC= 1.00D-01 BMatC= 2.41D-05 BMatP= 8.75D-05
 IDIUse=3 WtCom= 9.98D-01 WtEn= 1.77D-03
 Coeff-Com:  0.717D-03-0.390D-03-0.865D-02-0.277D-01-0.855D-01 0.399D-01
 Coeff-Com:  0.410D+00 0.672D+00
 Coeff-En:   0.000D+00 0.000D+00 0.000D+00 0.000D+00 0.000D+00 0.000D+00
 Coeff-En:   0.000D+00 0.100D+01
 Coeff:      0.716D-03-0.389D-03-0.864D-02-0.276D-01-0.853D-01 0.398D-01
 Coeff:      0.409D+00 0.672D+00
 Gap=     0.205 Goal=   None    Shift=    0.000
 Gap=     0.204 Goal=   None    Shift=    0.000
 RMSDP=3.83D-04 MaxDP=4.33D-02 DE=-4.60D-05 OVMax= 1.99D-03

 Cycle   9  Pass 1  IDiag  1:
 RMSU=  1.44D-04    CP:  1.25D+00  5.17D-01  1.20D+00  6.72D-01  1.68D+00
                    CP:  1.70D+00  1.30D+00  1.00D+00
 E= -1105.72147231779     Delta-E=       -0.000010698233 Rises=F Damp=F
 DIIS: error= 9.37D-05 at cycle   9 NSaved=   9.
 NSaved= 9 IEnMin= 9 EnMin= -1105.72147231779     IErMin= 9 ErrMin= 9.37D-05
 ErrMax= 9.37D-05  0.00D+00 EMaxC= 1.00D-01 BMatC= 6.21D-06 BMatP= 2.41D-05
 IDIUse=1 WtCom= 1.00D+00 WtEn= 0.00D+00
 Coeff-Com: -0.330D-03 0.145D-02 0.969D-03-0.316D-02-0.344D-01-0.733D-01
 Coeff-Com:  0.639D-01 0.363D+00 0.682D+00
 Coeff:     -0.330D-03 0.145D-02 0.969D-03-0.316D-02-0.344D-01-0.733D-01
 Coeff:      0.639D-01 0.363D+00 0.682D+00
 Gap=     0.205 Goal=   None    Shift=    0.000
 Gap=     0.204 Goal=   None    Shift=    0.000
 RMSDP=2.46D-04 MaxDP=2.33D-02 DE=-1.07D-05 OVMax= 9.80D-04

 Cycle  10  Pass 1  IDiag  1:
 RMSU=  4.84D-05    CP:  1.25D+00  5.16D-01  1.20D+00  6.74D-01  1.72D+00
                    CP:  1.76D+00  1.41D+00  1.31D+00  1.12D+00
 E= -1105.72147594833     Delta-E=       -0.000003630543 Rises=F Damp=F
 DIIS: error= 4.82D-05 at cycle  10 NSaved=  10.
 NSaved=10 IEnMin=10 EnMin= -1105.72147594833     IErMin=10 ErrMin= 4.82D-05
 ErrMax= 4.82D-05  0.00D+00 EMaxC= 1.00D-01 BMatC= 1.83D-06 BMatP= 6.21D-06
 IDIUse=1 WtCom= 1.00D+00 WtEn= 0.00D+00
 Coeff-Com: -0.490D-03 0.902D-03 0.457D-02 0.104D-01 0.219D-01-0.558D-01
 Coeff-Com: -0.134D+00-0.131D+00 0.331D+00 0.953D+00
 Coeff:     -0.490D-03 0.902D-03 0.457D-02 0.104D-01 0.219D-01-0.558D-01
 Coeff:     -0.134D+00-0.131D+00 0.331D+00 0.953D+00
 Gap=     0.205 Goal=   None    Shift=    0.000
 Gap=     0.204 Goal=   None    Shift=    0.000
 RMSDP=1.24D-04 MaxDP=1.64D-02 DE=-3.63D-06 OVMax= 7.64D-04

 Cycle  11  Pass 1  IDiag  1:
 RMSU=  3.03D-05    CP:  1.25D+00  5.16D-01  1.20D+00  6.74D-01  1.74D+00
                    CP:  1.79D+00  1.46D+00  1.43D+00  1.51D+00  1.69D+00
 E= -1105.72147768174     Delta-E=       -0.000001733408 Rises=F Damp=F
 DIIS: error= 2.22D-05 at cycle  11 NSaved=  11.
 NSaved=11 IEnMin=11 EnMin= -1105.72147768174     IErMin=11 ErrMin= 2.22D-05
 ErrMax= 2.22D-05  0.00D+00 EMaxC= 1.00D-01 BMatC= 2.83D-07 BMatP= 1.83D-06
 IDIUse=1 WtCom= 1.00D+00 WtEn= 0.00D+00
 Coeff-Com: -0.159D-04-0.126D-03 0.600D-03 0.264D-02 0.120D-01 0.114D-02
 Coeff-Com: -0.371D-01-0.107D+00-0.529D-01 0.193D+00 0.988D+00
 Coeff:     -0.159D-04-0.126D-03 0.600D-03 0.264D-02 0.120D-01 0.114D-02
 Coeff:     -0.371D-01-0.107D+00-0.529D-01 0.193D+00 0.988D+00
 Gap=     0.205 Goal=   None    Shift=    0.000
 Gap=     0.204 Goal=   None    Shift=    0.000
 RMSDP=5.23D-05 MaxDP=7.32D-03 DE=-1.73D-06 OVMax= 4.64D-04

 Cycle  12  Pass 1  IDiag  1:
 RMSU=  1.14D-05    CP:  1.25D+00  5.16D-01  1.20D+00  6.75D-01  1.75D+00
                    CP:  1.80D+00  1.48D+00  1.43D+00  1.59D+00  2.26D+00
                    CP:  1.73D+00
 E= -1105.72147807948     Delta-E=       -0.000000397742 Rises=F Damp=F
 DIIS: error= 1.09D-05 at cycle  12 NSaved=  12.
 NSaved=12 IEnMin=12 EnMin= -1105.72147807948     IErMin=12 ErrMin= 1.09D-05
 ErrMax= 1.09D-05  0.00D+00 EMaxC= 1.00D-01 BMatC= 1.01D-07 BMatP= 2.83D-07
 IDIUse=1 WtCom= 1.00D+00 WtEn= 0.00D+00
 Coeff-Com:  0.165D-03-0.363D-03-0.146D-02-0.263D-02-0.257D-02 0.190D-01
 Coeff-Com:  0.313D-01 0.445D-02-0.118D+00-0.281D+00 0.359D+00 0.992D+00
 Coeff:      0.165D-03-0.363D-03-0.146D-02-0.263D-02-0.257D-02 0.190D-01
 Coeff:      0.313D-01 0.445D-02-0.118D+00-0.281D+00 0.359D+00 0.992D+00
 Gap=     0.205 Goal=   None    Shift=    0.000
 Gap=     0.204 Goal=   None    Shift=    0.000
 RMSDP=4.10D-05 MaxDP=4.89D-03 DE=-3.98D-07 OVMax= 3.21D-04

 Cycle  13  Pass 1  IDiag  1:
 RMSU=  5.25D-06    CP:  1.25D+00  5.16D-01  1.20D+00  6.74D-01  1.75D+00
                    CP:  1.81D+00  1.47D+00  1.39D+00  1.63D+00  2.64D+00
                    CP:  2.39D+00  1.94D+00
 E= -1105.72147821808     Delta-E=       -0.000000138593 Rises=F Damp=F
 DIIS: error= 4.55D-06 at cycle  13 NSaved=  13.
 NSaved=13 IEnMin=13 EnMin= -1105.72147821808     IErMin=13 ErrMin= 4.55D-06
 ErrMax= 4.55D-06  0.00D+00 EMaxC= 1.00D-01 BMatC= 1.92D-08 BMatP= 1.01D-07
 IDIUse=1 WtCom= 1.00D+00 WtEn= 0.00D+00
 Coeff-Com: -0.136D-04 0.517D-04-0.148D-03-0.345D-03-0.210D-02-0.139D-03
 Coeff-Com:  0.490D-02 0.175D-01 0.211D-01-0.542D-01-0.178D+00 0.252D-01
 Coeff-Com:  0.117D+01
 Coeff:     -0.136D-04 0.517D-04-0.148D-03-0.345D-03-0.210D-02-0.139D-03
 Coeff:      0.490D-02 0.175D-01 0.211D-01-0.542D-01-0.178D+00 0.252D-01
 Coeff:      0.117D+01
 Gap=     0.205 Goal=   None    Shift=    0.000
 Gap=     0.204 Goal=   None    Shift=    0.000
 RMSDP=2.28D-05 MaxDP=2.48D-03 DE=-1.39D-07 OVMax= 1.50D-04

 Cycle  14  Pass 1  IDiag  1:
 RMSU=  2.68D-06    CP:  1.25D+00  5.17D-01  1.20D+00  6.74D-01  1.75D+00
                    CP:  1.81D+00  1.47D+00  1.36D+00  1.62D+00  2.76D+00
                    CP:  2.76D+00  2.60D+00  1.70D+00
 E= -1105.72147825167     Delta-E=       -0.000000033597 Rises=F Damp=F
 DIIS: error= 2.25D-06 at cycle  14 NSaved=  14.
 NSaved=14 IEnMin=14 EnMin= -1105.72147825167     IErMin=14 ErrMin= 2.25D-06
 ErrMax= 2.25D-06  0.00D+00 EMaxC= 1.00D-01 BMatC= 8.13D-09 BMatP= 1.92D-08
 IDIUse=1 WtCom= 1.00D+00 WtEn= 0.00D+00
 Coeff-Com: -0.481D-04 0.114D-03 0.285D-03 0.608D-03-0.216D-04-0.438D-02
 Coeff-Com: -0.693D-02 0.275D-02 0.396D-01 0.486D-01-0.141D+00-0.235D+00
 Coeff-Com:  0.402D+00 0.893D+00
 Coeff:     -0.481D-04 0.114D-03 0.285D-03 0.608D-03-0.216D-04-0.438D-02
 Coeff:     -0.693D-02 0.275D-02 0.396D-01 0.486D-01-0.141D+00-0.235D+00
 Coeff:      0.402D+00 0.893D+00
 Gap=     0.205 Goal=   None    Shift=    0.000
 Gap=     0.204 Goal=   None    Shift=    0.000
 RMSDP=1.01D-05 MaxDP=1.15D-03 DE=-3.36D-08 OVMax= 9.34D-05

 Cycle  15  Pass 1  IDiag  1:
 RMSU=  1.29D-06    CP:  1.25D+00  5.17D-01  1.20D+00  6.73D-01  1.75D+00
                    CP:  1.81D+00  1.47D+00  1.34D+00  1.62D+00  2.79D+00
                    CP:  2.89D+00  2.94D+00  2.15D+00  1.51D+00
 E= -1105.72147826270     Delta-E=       -0.000000011028 Rises=F Damp=F
 DIIS: error= 1.69D-06 at cycle  15 NSaved=  15.
 NSaved=15 IEnMin=15 EnMin= -1105.72147826270     IErMin=15 ErrMin= 1.69D-06
 ErrMax= 1.69D-06  0.00D+00 EMaxC= 1.00D-01 BMatC= 3.01D-09 BMatP= 8.13D-09
 IDIUse=1 WtCom= 1.00D+00 WtEn= 0.00D+00
 Coeff-Com: -0.141D-04 0.248D-04 0.148D-03 0.425D-03 0.913D-03-0.144D-02
 Coeff-Com: -0.567D-02-0.741D-02 0.722D-02 0.440D-01 0.221D-01-0.109D+00
 Coeff-Com: -0.353D+00 0.300D+00 0.110D+01
 Coeff:     -0.141D-04 0.248D-04 0.148D-03 0.425D-03 0.913D-03-0.144D-02
 Coeff:     -0.567D-02-0.741D-02 0.722D-02 0.440D-01 0.221D-01-0.109D+00
 Coeff:     -0.353D+00 0.300D+00 0.110D+01
 Gap=     0.205 Goal=   None    Shift=    0.000
 Gap=     0.204 Goal=   None    Shift=    0.000
 RMSDP=8.04D-06 MaxDP=8.12D-04 DE=-1.10D-08 OVMax= 9.73D-05

 Cycle  16  Pass 1  IDiag  1:
 RMSU=  2.44D-06    CP:  1.25D+00  5.17D-01  1.20D+00  6.73D-01  1.75D+00
                    CP:  1.81D+00  1.47D+00  1.33D+00  1.63D+00  2.80D+00
                    CP:  2.98D+00  3.00D+00  2.48D+00  2.07D+00  1.91D+00
 E= -1105.72147826886     Delta-E=       -0.000000006160 Rises=F Damp=F
 DIIS: error= 1.07D-06 at cycle  16 NSaved=  16.
 NSaved=16 IEnMin=16 EnMin= -1105.72147826886     IErMin=16 ErrMin= 1.07D-06
 ErrMax= 1.07D-06  0.00D+00 EMaxC= 1.00D-01 BMatC= 8.42D-10 BMatP= 3.01D-09
 IDIUse=1 WtCom= 1.00D+00 WtEn= 0.00D+00
 Coeff-Com:  0.114D-04-0.281D-04-0.794D-04-0.109D-03 0.263D-03 0.124D-02
 Coeff-Com:  0.825D-03-0.142D-02-0.126D-01-0.103D-01 0.525D-01 0.719D-01
 Coeff-Com: -0.195D+00-0.326D+00 0.172D+00 0.125D+01
 Coeff:      0.114D-04-0.281D-04-0.794D-04-0.109D-03 0.263D-03 0.124D-02
 Coeff:      0.825D-03-0.142D-02-0.126D-01-0.103D-01 0.525D-01 0.719D-01
 Coeff:     -0.195D+00-0.326D+00 0.172D+00 0.125D+01
 Gap=     0.205 Goal=   None    Shift=    0.000
 Gap=     0.204 Goal=   None    Shift=    0.000
 RMSDP=4.89D-06 MaxDP=4.61D-04 DE=-6.16D-09 OVMax= 6.69D-05

 Cycle  17  Pass 1  IDiag  1:
 RMSU=  1.20D-06    CP:  1.25D+00  5.17D-01  1.20D+00  6.73D-01  1.75D+00
                    CP:  1.81D+00  1.48D+00  1.32D+00  1.63D+00  2.80D+00
                    CP:  3.00D+00  3.00D+00  2.65D+00  2.51D+00  2.59D+00
                    CP:  1.62D+00
 E= -1105.72147827070     Delta-E=       -0.000000001844 Rises=F Damp=F
 DIIS: error= 4.68D-07 at cycle  17 NSaved=  17.
 NSaved=17 IEnMin=17 EnMin= -1105.72147827070     IErMin=17 ErrMin= 4.68D-07
 ErrMax= 4.68D-07  0.00D+00 EMaxC= 1.00D-01 BMatC= 1.54D-10 BMatP= 8.42D-10
 IDIUse=1 WtCom= 1.00D+00 WtEn= 0.00D+00
 Coeff-Com:  0.436D-05-0.950D-05-0.518D-04-0.102D-03-0.779D-04 0.607D-03
 Coeff-Com:  0.119D-02 0.116D-02-0.469D-02-0.121D-01 0.101D-01 0.436D-01
 Coeff-Com:  0.199D-01-0.159D+00-0.189D+00 0.385D+00 0.904D+00
 Coeff:      0.436D-05-0.950D-05-0.518D-04-0.102D-03-0.779D-04 0.607D-03
 Coeff:      0.119D-02 0.116D-02-0.469D-02-0.121D-01 0.101D-01 0.436D-01
 Coeff:      0.199D-01-0.159D+00-0.189D+00 0.385D+00 0.904D+00
 Gap=     0.205 Goal=   None    Shift=    0.000
 Gap=     0.204 Goal=   None    Shift=    0.000
 RMSDP=1.58D-06 MaxDP=1.30D-04 DE=-1.84D-09 OVMax= 1.88D-05

 Cycle  18  Pass 1  IDiag  1:
 RMSU=  2.52D-07    CP:  1.25D+00  5.17D-01  1.20D+00  6.73D-01  1.75D+00
                    CP:  1.81D+00  1.48D+00  1.32D+00  1.63D+00  2.79D+00
                    CP:  3.00D+00  3.00D+00  2.68D+00  2.56D+00  2.83D+00
                    CP:  1.78D+00  1.34D+00
 E= -1105.72147827092     Delta-E=       -0.000000000211 Rises=F Damp=F
 DIIS: error= 2.30D-07 at cycle  18 NSaved=  18.
 NSaved=18 IEnMin=18 EnMin= -1105.72147827092     IErMin=18 ErrMin= 2.30D-07
 ErrMax= 2.30D-07  0.00D+00 EMaxC= 1.00D-01 BMatC= 3.33D-11 BMatP= 1.54D-10
 IDIUse=1 WtCom= 1.00D+00 WtEn= 0.00D+00
 Coeff-Com: -0.389D-06 0.122D-05-0.807D-05-0.215D-04-0.733D-04 0.378D-04
 Coeff-Com:  0.357D-03 0.635D-03 0.325D-03-0.328D-02-0.473D-02 0.542D-02
 Coeff-Com:  0.429D-01-0.976D-02-0.112D+00-0.548D-01 0.383D+00 0.753D+00
 Coeff:     -0.389D-06 0.122D-05-0.807D-05-0.215D-04-0.733D-04 0.378D-04
 Coeff:      0.357D-03 0.635D-03 0.325D-03-0.328D-02-0.473D-02 0.542D-02
 Coeff:      0.429D-01-0.976D-02-0.112D+00-0.548D-01 0.383D+00 0.753D+00
 Gap=     0.205 Goal=   None    Shift=    0.000
 Gap=     0.204 Goal=   None    Shift=    0.000
 RMSDP=4.20D-07 MaxDP=3.98D-05 DE=-2.11D-10 OVMax= 4.02D-06

 Cycle  19  Pass 1  IDiag  1:
 RMSU=  9.94D-08    CP:  1.25D+00  5.17D-01  1.20D+00  6.73D-01  1.75D+00
                    CP:  1.81D+00  1.48D+00  1.32D+00  1.63D+00  2.79D+00
                    CP:  3.00D+00  3.00D+00  2.69D+00  2.55D+00  2.89D+00
                    CP:  1.83D+00  1.44D+00  1.19D+00
 E= -1105.72147827091     Delta-E=        0.000000000006 Rises=F Damp=F
 DIIS: error= 1.20D-07 at cycle  19 NSaved=  19.
 NSaved=19 IEnMin=18 EnMin= -1105.72147827092     IErMin=19 ErrMin= 1.20D-07
 ErrMax= 1.20D-07  0.00D+00 EMaxC= 1.00D-01 BMatC= 4.66D-12 BMatP= 3.33D-11
 IDIUse=1 WtCom= 1.00D+00 WtEn= 0.00D+00
 Coeff-Com: -0.867D-06 0.198D-05 0.745D-05 0.132D-04-0.110D-04-0.105D-03
 Coeff-Com: -0.114D-03-0.101D-03 0.102D-02 0.153D-02-0.325D-02-0.752D-02
 Coeff-Com:  0.735D-02 0.297D-01 0.994D-02-0.868D-01-0.926D-01 0.169D+00
 Coeff-Com:  0.972D+00
 Coeff:     -0.867D-06 0.198D-05 0.745D-05 0.132D-04-0.110D-04-0.105D-03
 Coeff:     -0.114D-03-0.101D-03 0.102D-02 0.153D-02-0.325D-02-0.752D-02
 Coeff:      0.735D-02 0.297D-01 0.994D-02-0.868D-01-0.926D-01 0.169D+00
 Coeff:      0.972D+00
 Gap=     0.205 Goal=   None    Shift=    0.000
 Gap=     0.204 Goal=   None    Shift=    0.000
 RMSDP=2.07D-07 MaxDP=1.99D-05 DE= 6.37D-12 OVMax= 1.39D-06

 Cycle  20  Pass 1  IDiag  1:
 RMSU=  4.53D-08    CP:  1.25D+00  5.17D-01  1.20D+00  6.73D-01  1.75D+00
                    CP:  1.81D+00  1.48D+00  1.31D+00  1.63D+00  2.79D+00
                    CP:  3.00D+00  3.00D+00  2.69D+00  2.54D+00  2.87D+00
                    CP:  1.84D+00  1.50D+00  1.33D+00  1.49D+00
 E= -1105.72147827096     Delta-E=       -0.000000000047 Rises=F Damp=F
 DIIS: error= 4.15D-08 at cycle  20 NSaved=  20.
 NSaved=20 IEnMin=20 EnMin= -1105.72147827096     IErMin=20 ErrMin= 4.15D-08
 ErrMax= 4.15D-08  0.00D+00 EMaxC= 1.00D-01 BMatC= 1.14D-12 BMatP= 4.66D-12
 IDIUse=1 WtCom= 1.00D+00 WtEn= 0.00D+00
 Coeff-Com: -0.999D-08 0.692D-08 0.271D-05 0.556D-05 0.109D-04-0.242D-04
 Coeff-Com: -0.756D-04-0.142D-03 0.126D-03 0.831D-03 0.406D-03-0.219D-02
 Coeff-Com: -0.718D-02 0.720D-02 0.229D-01-0.524D-02-0.935D-01-0.105D+00
 Coeff-Com:  0.207D+00 0.975D+00
 Coeff:     -0.999D-08 0.692D-08 0.271D-05 0.556D-05 0.109D-04-0.242D-04
 Coeff:     -0.756D-04-0.142D-03 0.126D-03 0.831D-03 0.406D-03-0.219D-02
 Coeff:     -0.718D-02 0.720D-02 0.229D-01-0.524D-02-0.935D-01-0.105D+00
 Coeff:      0.207D+00 0.975D+00
 Gap=     0.205 Goal=   None    Shift=    0.000
 Gap=     0.204 Goal=   None    Shift=    0.000
 RMSDP=1.11D-07 MaxDP=1.08D-05 DE=-4.71D-11 OVMax= 6.64D-07

 Cycle  21  Pass 1  IDiag  1:
 Restarting incremental Fock formation.
 E= -1105.72147827093     Delta-E=        0.000000000026 Rises=F Damp=F
 DIIS: error= 2.06D-08 at cycle  21 NSaved=  20.
 NSaved=20 IEnMin=19 EnMin= -1105.72147827096     IErMin=20 ErrMin= 2.06D-08
 ErrMax= 2.06D-08  0.00D+00 EMaxC= 1.00D-01 BMatC= 4.08D-13 BMatP= 1.14D-12
 IDIUse=1 WtCom= 1.00D+00 WtEn= 0.00D+00
 Coeff-Com: -0.165D-07 0.957D-06 0.174D-05 0.997D-05-0.323D-05-0.309D-04
 Coeff-Com: -0.308D-04-0.931D-04 0.104D-03 0.686D-03 0.501D-03-0.420D-02
 Coeff-Com: -0.350D-02 0.640D-02 0.182D-01-0.122D-01-0.845D-01-0.202D+00
 Coeff-Com:  0.360D+00 0.921D+00
 Coeff:     -0.165D-07 0.957D-06 0.174D-05 0.997D-05-0.323D-05-0.309D-04
 Coeff:     -0.308D-04-0.931D-04 0.104D-03 0.686D-03 0.501D-03-0.420D-02
 Coeff:     -0.350D-02 0.640D-02 0.182D-01-0.122D-01-0.845D-01-0.202D+00
 Coeff:      0.360D+00 0.921D+00
 Gap=     0.205 Goal=   None    Shift=    0.000
 Gap=     0.204 Goal=   None    Shift=    0.000
 RMSDP=6.10D-08 MaxDP=6.80D-06 DE= 2.64D-11 OVMax= 3.64D-07

 Cycle  22  Pass 1  IDiag  1:
 RMSU=  5.74D-08    CP:  1.00D+00
 E= -1105.72147827096     Delta-E=       -0.000000000026 Rises=F Damp=F
 DIIS: error= 8.46D-09 at cycle  22 NSaved=  20.
 NSaved=20 IEnMin=18 EnMin= -1105.72147827096     IErMin=20 ErrMin= 8.46D-09
 ErrMax= 8.46D-09  0.00D+00 EMaxC= 1.00D-01 BMatC= 8.00D-14 BMatP= 4.08D-13
 IDIUse=1 WtCom= 1.00D+00 WtEn= 0.00D+00
 Coeff-Com: -0.519D-06-0.152D-05-0.179D-05 0.591D-05 0.184D-04 0.346D-04
 Coeff-Com: -0.529D-04-0.196D-03-0.384D-04 0.602D-03 0.136D-02-0.229D-02
 Coeff-Com: -0.498D-02 0.331D-02 0.235D-01 0.154D-01-0.882D-01-0.209D+00
 Coeff-Com:  0.161D+00 0.110D+01
 Coeff:     -0.519D-06-0.152D-05-0.179D-05 0.591D-05 0.184D-04 0.346D-04
 Coeff:     -0.529D-04-0.196D-03-0.384D-04 0.602D-03 0.136D-02-0.229D-02
 Coeff:     -0.498D-02 0.331D-02 0.235D-01 0.154D-01-0.882D-01-0.209D+00
 Coeff:      0.161D+00 0.110D+01
 Gap=     0.205 Goal=   None    Shift=    0.000
 Gap=     0.204 Goal=   None    Shift=    0.000
 RMSDP=3.52D-08 MaxDP=4.27D-06 DE=-2.61D-11 OVMax= 2.58D-07

 Cycle  23  Pass 1  IDiag  1:
 RMSU=  1.82D-08    CP:  1.00D+00  1.50D+00
 E= -1105.72147827093     Delta-E=        0.000000000024 Rises=F Damp=F
 DIIS: error= 3.96D-09 at cycle  23 NSaved=  20.
 NSaved=20 IEnMin=17 EnMin= -1105.72147827096     IErMin=20 ErrMin= 3.96D-09
 ErrMax= 3.96D-09  0.00D+00 EMaxC= 1.00D-01 BMatC= 2.23D-14 BMatP= 8.00D-14
 IDIUse=1 WtCom= 1.00D+00 WtEn= 0.00D+00
 Coeff-Com: -0.413D-07-0.735D-07 0.736D-06 0.265D-05 0.352D-07-0.489D-05
 Coeff-Com: -0.489D-05-0.459D-04 0.174D-05 0.518D-03 0.482D-05-0.145D-02
 Coeff-Com: -0.179D-02 0.719D-02 0.143D-01 0.878D-03-0.121D+00-0.772D-01
 Coeff-Com:  0.420D+00 0.759D+00
 Coeff:     -0.413D-07-0.735D-07 0.736D-06 0.265D-05 0.352D-07-0.489D-05
 Coeff:     -0.489D-05-0.459D-04 0.174D-05 0.518D-03 0.482D-05-0.145D-02
 Coeff:     -0.179D-02 0.719D-02 0.143D-01 0.878D-03-0.121D+00-0.772D-01
 Coeff:      0.420D+00 0.759D+00
 Gap=     0.205 Goal=   None    Shift=    0.000
 Gap=     0.204 Goal=   None    Shift=    0.000
 RMSDP=9.32D-09 MaxDP=9.78D-07 DE= 2.43D-11 OVMax= 8.30D-08

 Error on total polarization charges =  0.03967
 SCF Done:  E(UM062X) =  -1105.72147827     A.U. after   23 cycles
            NFock= 23  Conv=0.93D-08     -V/T= 2.0029
 <Sx>= 0.0000 <Sy>= 0.0000 <Sz>= 0.5000 <S**2>= 0.7705 S= 0.5102
 <L.S>=  0.00000000000    
 KE= 1.102475839871D+03 PE=-5.249633109298D+03 EE= 1.714574773074D+03
 SMD-CDS (non-electrostatic) energy       (kcal/mol) =      -4.96
 (included in total energy above)
 Annihilation of the first spin contaminant:
 S**2 before annihilation     0.7705,   after     0.7502
 Leave Link  502 at Sun Aug 16 10:57:12 2020, MaxMem=  2147483648 cpu:            4519.5 elap:             283.9
 (Enter /cineca/prod/opt/applications/g16/C.01/binary/g16/l801.exe)
 DoSCS=F DFT=T ScalE2(SS,OS)=  1.000000  1.000000
 Range of M.O.s used for correlation:     1   463
 NBasis=   466 NAE=    65 NBE=    64 NFC=     0 NFV=     0
 NROrb=    463 NOA=    65 NOB=    64 NVA=   398 NVB=   399

 **** Warning!!: The largest alpha MO coefficient is  0.13263598D+03


 **** Warning!!: The largest beta MO coefficient is  0.12669555D+03

 Leave Link  801 at Sun Aug 16 10:57:14 2020, MaxMem=  2147483648 cpu:               0.8 elap:               0.1
 (Enter /cineca/prod/opt/applications/g16/C.01/binary/g16/l1101.exe)
 Using compressed storage, NAtomX=    29.
 Will process     30 centers per pass.
 Leave Link 1101 at Sun Aug 16 10:57:15 2020, MaxMem=  2147483648 cpu:              18.0 elap:               1.3
 (Enter /cineca/prod/opt/applications/g16/C.01/binary/g16/l1102.exe)
 Symmetrizing basis deriv contribution to polar:
 IMax=3 JMax=2 DiffMx= 0.00D+00
 Leave Link 1102 at Sun Aug 16 10:57:16 2020, MaxMem=  2147483648 cpu:               1.4 elap:               0.1
 (Enter /cineca/prod/opt/applications/g16/C.01/binary/g16/l1110.exe)
 Forming Gx(P) for the SCF density, NAtomX=    29.
 Integral derivatives from FoFJK, PRISM(SPDF).
 Do as many integral derivatives as possible in FoFJK.
 G2DrvN: MDV=    2147480525.
 G2DrvN: will do    30 centers at a time, making    1 passes.
 Calling FoFCou, ICntrl=  3107 FMM=F I1Cent=   0 AccDes= 0.00D+00.
 FoFJK:  IHMeth= 1 ICntrl=    3107 DoSepK=F KAlg= 0 I1Cent=           0 FoldK=F
 IRaf=         0 NMat=       1 IRICut=       1 DoRegI=T DoRafI=F ISym2E= 0 IDoP0=0 IntGTp=1.
 FoFCou: FMM=F IPFlag=           0 FMFlag=      100000 FMFlg1=           0
         NFxFlg=           0 DoJE=F BraDBF=F KetDBF=F FulRan=T
         wScrn=  0.000000 ICntrl=      3107 IOpCl=  1 I1Cent=           0 NGrid=           0
         NMat0=    1 NMatS0=      1 NMatT0=    0 NMatD0=    1 NMtDS0=    0 NMtDT0=    0
 Symmetry not used in FoFCou.
 NEqPCM:  Using equilibrium solvation (IEInf=0, Eps=   4.7297, EpsInf=   1.9664)
 G2PCM: DoFxE=T DoFxN=T DoGrad=T DoDP/DQ/DG/TGxP=FFFF NFrqRd=   0 IEInf=0 SqF1=F DoCFld=F IF1Alg=4.
 GePol: Maximum number of non-zero 1st derivatives   =     261
 End of G2Drv F.D. properties file   721 does not exist.
 End of G2Drv F.D. properties file   722 does not exist.
 End of G2Drv F.D. properties file   788 does not exist.
 Leave Link 1110 at Sun Aug 16 11:04:03 2020, MaxMem=  2147483648 cpu:            6443.3 elap:             407.1
 (Enter /cineca/prod/opt/applications/g16/C.01/binary/g16/l1002.exe)
 Minotr:  UHF open shell wavefunction.
          IDoAtm=11111111111111111111111111111
 NEqPCM:  Using equilibrium solvation (IEInf=0, Eps=   4.7297, EpsInf=   1.9664)
          Direct CPHF calculation.
          Differentiating once with respect to nuclear coordinates.
          Requested convergence is 1.0D-08 RMS, and 1.0D-07 maximum.
          Secondary convergence is 1.0D-12 RMS, and 1.0D-12 maximum.
          NewPWx=T KeepS1=F KeepF1=F KeepIn=T MapXYZ=F SortEE=F KeepMc=T.
         8972 words used for storage of precomputed grid.
 Two-electron integrals replicated using symmetry.
          MDV=    2147483648 using IRadAn=       1.
          Solving linear equations simultaneously, MaxMat=     384.
 FoF2E skips out because all densities are zero.
 CalDSu exits because no D1Ps are significant.
 FoFJK:  IHMeth= 1 ICntrl=       0 DoSepK=F KAlg= 0 I1Cent=           0 FoldK=F
 IRaf= 880000000 NMat=      87 IRICut=     217 DoRegI=T DoRafI=T ISym2E= 2 IDoP0=3 IntGTp=3.
          There are    90 degrees of freedom in the 1st order CPHF.  IDoFFX=6 NUNeed=     0.
     84 vectors produced by pass  0 Test12= 5.71D-14 1.11D-09 XBig12= 8.02D-01 1.19D-01.
 AX will form    84 AO Fock derivatives at one time.
     84 vectors produced by pass  1 Test12= 5.71D-14 1.11D-09 XBig12= 8.33D-02 5.93D-02.
     84 vectors produced by pass  2 Test12= 5.71D-14 1.11D-09 XBig12= 3.69D-03 1.45D-02.
     84 vectors produced by pass  3 Test12= 5.71D-14 1.11D-09 XBig12= 6.75D-05 1.22D-03.
     84 vectors produced by pass  4 Test12= 5.71D-14 1.11D-09 XBig12= 1.11D-06 2.28D-04.
     84 vectors produced by pass  5 Test12= 5.71D-14 1.11D-09 XBig12= 1.36D-08 1.18D-05.
     84 vectors produced by pass  6 Test12= 5.71D-14 1.11D-09 XBig12= 1.31D-10 9.01D-07.
     57 vectors produced by pass  7 Test12= 5.71D-14 1.11D-09 XBig12= 1.05D-12 7.10D-08.
     15 vectors produced by pass  8 Test12= 5.71D-14 1.11D-09 XBig12= 7.95D-15 8.45D-09.
 InvSVY:  IOpt=1 It=  1 EMax= 5.00D-16
 Solved reduced A of dimension   660 with    90 vectors.
 End of Minotr F.D. properties file   721 does not exist.
 End of Minotr F.D. properties file   722 does not exist.
 End of Minotr F.D. properties file   788 does not exist.
 Leave Link 1002 at Sun Aug 16 11:26:47 2020, MaxMem=  2147483648 cpu:           21537.8 elap:            1363.6
 (Enter /cineca/prod/opt/applications/g16/C.01/binary/g16/l601.exe)
 Copying SCF densities to generalized density rwf, IOpCl= 1 IROHF=0.

 **********************************************************************

            Population analysis using the SCF Density.

 **********************************************************************

 Orbital symmetries:
 Alpha Orbitals:
       Occupied  (A) (A) (A) (A) (A) (A) (A) (A) (A) (A) (A) (A)
                 (A) (A) (A) (A) (A) (A) (A) (A) (A) (A) (A) (A)
                 (A) (A) (A) (A) (A) (A) (A) (A) (A) (A) (A) (A)
                 (A) (A) (A) (A) (A) (A) (A) (A) (A) (A) (A) (A)
                 (A) (A) (A) (A) (A) (A) (A) (A) (A) (A) (A) (A)
                 (A) (A) (A) (A) (A)
       Virtual   (A) (A) (A) (A) (A) (A) (A) (A) (A) (A) (A) (A)
                 (A) (A) (A) (A) (A) (A) (A) (A) (A) (A) (A) (A)
                 (A) (A) (A) (A) (A) (A) (A) (A) (A) (A) (A) (A)
                 (A) (A) (A) (A) (A) (A) (A) (A) (A) (A) (A) (A)
                 (A) (A) (A) (A) (A) (A) (A) (A) (A) (A) (A) (A)
                 (A) (A) (A) (A) (A) (A) (A) (A) (A) (A) (A) (A)
                 (A) (A) (A) (A) (A) (A) (A) (A) (A) (A) (A) (A)
                 (A) (A) (A) (A) (A) (A) (A) (A) (A) (A) (A) (A)
                 (A) (A) (A) (A) (A) (A) (A) (A) (A) (A) (A) (A)
                 (A) (A) (A) (A) (A) (A) (A) (A) (A) (A) (A) (A)
                 (A) (A) (A) (A) (A) (A) (A) (A) (A) (A) (A) (A)
                 (A) (A) (A) (A) (A) (A) (A) (A) (A) (A) (A) (A)
                 (A) (A) (A) (A) (A) (A) (A) (A) (A) (A) (A) (A)
                 (A) (A) (A) (A) (A) (A) (A) (A) (A) (A) (A) (A)
                 (A) (A) (A) (A) (A) (A) (A) (A) (A) (A) (A) (A)
                 (A) (A) (A) (A) (A) (A) (A) (A) (A) (A) (A) (A)
                 (A) (A) (A) (A) (A) (A) (A) (A) (A) (A) (A) (A)
                 (A) (A) (A) (A) (A) (A) (A) (A) (A) (A) (A) (A)
                 (A) (A) (A) (A) (A) (A) (A) (A) (A) (A) (A) (A)
                 (A) (A) (A) (A) (A) (A) (A) (A) (A) (A) (A) (A)
                 (A) (A) (A) (A) (A) (A) (A) (A) (A) (A) (A) (A)
                 (A) (A) (A) (A) (A) (A) (A) (A) (A) (A) (A) (A)
                 (A) (A) (A) (A) (A) (A) (A) (A) (A) (A) (A) (A)
                 (A) (A) (A) (A) (A) (A) (A) (A) (A) (A) (A) (A)
                 (A) (A) (A) (A) (A) (A) (A) (A) (A) (A) (A) (A)
                 (A) (A) (A) (A) (A) (A) (A) (A) (A) (A) (A) (A)
                 (A) (A) (A) (A) (A) (A) (A) (A) (A) (A) (A) (A)
                 (A) (A) (A) (A) (A) (A) (A) (A) (A) (A) (A) (A)
                 (A) (A) (A) (A) (A) (A) (A) (A) (A) (A) (A) (A)
                 (A) (A) (A) (A) (A) (A) (A) (A) (A) (A) (A) (A)
                 (A) (A) (A) (A) (A) (A) (A) (A) (A) (A) (A) (A)
                 (A) (A) (A) (A) (A) (A) (A) (A) (A) (A) (A) (A)
                 (A) (A) (A) (A) (A) (A) (A) (A) (A) (A) (A) (A)
                 (A) (A)
 Beta  Orbitals:
       Occupied  (A) (A) (A) (A) (A) (A) (A) (A) (A) (A) (A) (A)
                 (A) (A) (A) (A) (A) (A) (A) (A) (A) (A) (A) (A)
                 (A) (A) (A) (A) (A) (A) (A) (A) (A) (A) (A) (A)
                 (A) (A) (A) (A) (A) (A) (A) (A) (A) (A) (A) (A)
                 (A) (A) (A) (A) (A) (A) (A) (A) (A) (A) (A) (A)
                 (A) (A) (A) (A)
       Virtual   (A) (A) (A) (A) (A) (A) (A) (A) (A) (A) (A) (A)
                 (A) (A) (A) (A) (A) (A) (A) (A) (A) (A) (A) (A)
                 (A) (A) (A) (A) (A) (A) (A) (A) (A) (A) (A) (A)
                 (A) (A) (A) (A) (A) (A) (A) (A) (A) (A) (A) (A)
                 (A) (A) (A) (A) (A) (A) (A) (A) (A) (A) (A) (A)
                 (A) (A) (A) (A) (A) (A) (A) (A) (A) (A) (A) (A)
                 (A) (A) (A) (A) (A) (A) (A) (A) (A) (A) (A) (A)
                 (A) (A) (A) (A) (A) (A) (A) (A) (A) (A) (A) (A)
                 (A) (A) (A) (A) (A) (A) (A) (A) (A) (A) (A) (A)
                 (A) (A) (A) (A) (A) (A) (A) (A) (A) (A) (A) (A)
                 (A) (A) (A) (A) (A) (A) (A) (A) (A) (A) (A) (A)
                 (A) (A) (A) (A) (A) (A) (A) (A) (A) (A) (A) (A)
                 (A) (A) (A) (A) (A) (A) (A) (A) (A) (A) (A) (A)
                 (A) (A) (A) (A) (A) (A) (A) (A) (A) (A) (A) (A)
                 (A) (A) (A) (A) (A) (A) (A) (A) (A) (A) (A) (A)
                 (A) (A) (A) (A) (A) (A) (A) (A) (A) (A) (A) (A)
                 (A) (A) (A) (A) (A) (A) (A) (A) (A) (A) (A) (A)
                 (A) (A) (A) (A) (A) (A) (A) (A) (A) (A) (A) (A)
                 (A) (A) (A) (A) (A) (A) (A) (A) (A) (A) (A) (A)
                 (A) (A) (A) (A) (A) (A) (A) (A) (A) (A) (A) (A)
                 (A) (A) (A) (A) (A) (A) (A) (A) (A) (A) (A) (A)
                 (A) (A) (A) (A) (A) (A) (A) (A) (A) (A) (A) (A)
                 (A) (A) (A) (A) (A) (A) (A) (A) (A) (A) (A) (A)
                 (A) (A) (A) (A) (A) (A) (A) (A) (A) (A) (A) (A)
                 (A) (A) (A) (A) (A) (A) (A) (A) (A) (A) (A) (A)
                 (A) (A) (A) (A) (A) (A) (A) (A) (A) (A) (A) (A)
                 (A) (A) (A) (A) (A) (A) (A) (A) (A) (A) (A) (A)
                 (A) (A) (A) (A) (A) (A) (A) (A) (A) (A) (A) (A)
                 (A) (A) (A) (A) (A) (A) (A) (A) (A) (A) (A) (A)
                 (A) (A) (A) (A) (A) (A) (A) (A) (A) (A) (A) (A)
                 (A) (A) (A) (A) (A) (A) (A) (A) (A) (A) (A) (A)
                 (A) (A) (A) (A) (A) (A) (A) (A) (A) (A) (A) (A)
                 (A) (A) (A) (A) (A) (A) (A) (A) (A) (A) (A) (A)
                 (A) (A) (A)
 The electronic state is 2-A.
 Alpha  occ. eigenvalues --  -89.97960 -19.63557 -19.62857 -14.79571 -10.61396
 Alpha  occ. eigenvalues --  -10.61287 -10.58944 -10.58912 -10.56366 -10.56249
 Alpha  occ. eigenvalues --  -10.55763 -10.55584 -10.55583 -10.55436 -10.55252
 Alpha  occ. eigenvalues --  -10.54904 -10.54728  -8.33922  -6.26157  -6.25919
 Alpha  occ. eigenvalues --   -6.25647  -1.13948  -1.09858  -1.01894  -0.98573
 Alpha  occ. eigenvalues --   -0.96802  -0.91689  -0.87636  -0.86265  -0.83695
 Alpha  occ. eigenvalues --   -0.79151  -0.73598  -0.73153  -0.72897  -0.69727
 Alpha  occ. eigenvalues --   -0.65290  -0.63700  -0.62056  -0.56698  -0.56301
 Alpha  occ. eigenvalues --   -0.54501  -0.54275  -0.53881  -0.52361  -0.51132
 Alpha  occ. eigenvalues --   -0.50978  -0.50508  -0.49694  -0.48726  -0.45915
 Alpha  occ. eigenvalues --   -0.45762  -0.44927  -0.44099  -0.42972  -0.41924
 Alpha  occ. eigenvalues --   -0.41363  -0.41192  -0.38116  -0.35046  -0.34307
 Alpha  occ. eigenvalues --   -0.32903  -0.32091  -0.31352  -0.27124  -0.21568
 Alpha virt. eigenvalues --   -0.01037  -0.00739  -0.00120   0.00570   0.00793
 Alpha virt. eigenvalues --    0.00946   0.02011   0.02188   0.02267   0.02867
 Alpha virt. eigenvalues --    0.03708   0.04110   0.04144   0.04807   0.05337
 Alpha virt. eigenvalues --    0.05761   0.06604   0.06931   0.07050   0.07356
 Alpha virt. eigenvalues --    0.07714   0.08146   0.09387   0.09522   0.09971
 Alpha virt. eigenvalues --    0.10680   0.11262   0.11512   0.11674   0.11944
 Alpha virt. eigenvalues --    0.12397   0.12561   0.12938   0.13289   0.13495
 Alpha virt. eigenvalues --    0.13764   0.13961   0.14027   0.14697   0.14989
 Alpha virt. eigenvalues --    0.15357   0.15463   0.15921   0.16091   0.16437
 Alpha virt. eigenvalues --    0.16755   0.17042   0.17747   0.18115   0.18591
 Alpha virt. eigenvalues --    0.18810   0.19039   0.19265   0.19592   0.19696
 Alpha virt. eigenvalues --    0.20242   0.20868   0.21082   0.21352   0.21749
 Alpha virt. eigenvalues --    0.22284   0.22989   0.23276   0.23750   0.24015
 Alpha virt. eigenvalues --    0.24600   0.24788   0.25189   0.25765   0.25998
 Alpha virt. eigenvalues --    0.26481   0.27162   0.27309   0.27975   0.28072
 Alpha virt. eigenvalues --    0.28621   0.28985   0.29317   0.29695   0.30068
 Alpha virt. eigenvalues --    0.30411   0.30976   0.31213   0.31729   0.32428
 Alpha virt. eigenvalues --    0.32598   0.33187   0.33442   0.34041   0.34372
 Alpha virt. eigenvalues --    0.34664   0.35323   0.35657   0.36023   0.36227
 Alpha virt. eigenvalues --    0.37785   0.37942   0.38416   0.38574   0.39883
 Alpha virt. eigenvalues --    0.40199   0.40369   0.41199   0.41715   0.42506
 Alpha virt. eigenvalues --    0.43734   0.44440   0.44992   0.47094   0.47347
 Alpha virt. eigenvalues --    0.48476   0.49561   0.50888   0.54154   0.56409
 Alpha virt. eigenvalues --    0.56838   0.57859   0.58026   0.58386   0.58801
 Alpha virt. eigenvalues --    0.59095   0.60153   0.60452   0.61107   0.61907
 Alpha virt. eigenvalues --    0.62427   0.62592   0.63515   0.64543   0.64956
 Alpha virt. eigenvalues --    0.65717   0.66488   0.67071   0.67943   0.68564
 Alpha virt. eigenvalues --    0.69212   0.70287   0.70829   0.71891   0.72742
 Alpha virt. eigenvalues --    0.73739   0.74908   0.75924   0.76182   0.76403
 Alpha virt. eigenvalues --    0.77009   0.77774   0.78024   0.79561   0.80066
 Alpha virt. eigenvalues --    0.80704   0.81374   0.82094   0.82737   0.84072
 Alpha virt. eigenvalues --    0.84989   0.87219   0.88067   0.88748   0.89335
 Alpha virt. eigenvalues --    0.90035   0.90436   0.90654   0.91070   0.91459
 Alpha virt. eigenvalues --    0.92241   0.92658   0.94861   0.94950   0.95752
 Alpha virt. eigenvalues --    0.96878   0.97569   0.98662   0.99287   0.99708
 Alpha virt. eigenvalues --    1.01399   1.01768   1.02739   1.03339   1.04339
 Alpha virt. eigenvalues --    1.04882   1.06677   1.07771   1.07802   1.09347
 Alpha virt. eigenvalues --    1.10834   1.11238   1.12505   1.12905   1.14275
 Alpha virt. eigenvalues --    1.16203   1.16959   1.17523   1.19878   1.20209
 Alpha virt. eigenvalues --    1.20899   1.22700   1.24723   1.29163   1.31958
 Alpha virt. eigenvalues --    1.32764   1.33551   1.35392   1.35773   1.37979
 Alpha virt. eigenvalues --    1.39203   1.41216   1.42615   1.43483   1.47389
 Alpha virt. eigenvalues --    1.49232   1.51514   1.52769   1.54179   1.56175
 Alpha virt. eigenvalues --    1.57813   1.58221   1.58493   1.58913   1.60700
 Alpha virt. eigenvalues --    1.61068   1.61238   1.61953   1.63364   1.64063
[...]
 0710,0.00000461,-0.00038768,0.00008875,-0.00005773,0.00001678,-0.00001
 718,0.00002337,-0.00002571,0.00001097,0.00000186,0.05927811,-0.0004200
 4,-0.00111928,-0.00133395,0.00002777,-0.00004737,0.00033528,-0.0002545
 6,0.00002351,0.00001893,0.00026051,-0.00009954,-0.00033752,0.00257553,
 -0.00203777,0.00772225,-0.00201597,0.00409145,0.00373497,-0.00031010,-
 0.00046366,-0.00086920,0.00092491,0.00424857,0.00259875,-0.00012490,-0
 .00249113,0.00547418,0.00607115,-0.17289275,0.15202476,0.00007295,0.00
 000482,-0.00002873,0.00000593,-0.00002078,0.00007353,0.00011314,-0.002
 15643,-0.00257772,0.00017176,-0.00034042,0.00027342,0.00002811,-0.0004
 3371,-0.00030123,-0.00001392,-0.00000584,0.00000295,0.00005022,-0.0000
 0819,-0.00001004,0.00000465,0.00000040,0.00000153,0.00000414,-0.000006
 52,-0.00000134,0.00008247,-0.00003083,-0.00005783,-0.00001232,0.000007
 52,0.00000617,-0.00000196,0.00000283,0.00001256,-0.00722067,0.17371498
 ,-0.00004355,-0.00113554,-0.00110463,-0.00008511,0.00046996,-0.0001700
 8,0.00036191,-0.00006299,-0.00016001,0.00019814,0.00014963,0.00003729,
 -0.00203187,0.00784704,-0.00374802,0.00227690,0.00346981,0.00371539,-0
 .00026173,-0.00096819,-0.00008464,-0.00144098,0.00270601,0.00317990,0.
 00153207,0.00579192,-0.00377381,-0.00992803,0.15191864,-0.20892687,-0.
 00014070,0.00000219,0.00003954,0.00000594,-0.00004466,0.00010596,0.000
 01417,-0.00262458,-0.00158696,-0.00016093,0.00017385,-0.00039785,-0.00
 002587,-0.00032264,-0.00036123,0.00005465,0.00002746,-0.00007353,0.000
 03273,-0.00005712,0.00002621,-0.00000146,0.00000396,0.00000384,0.00000
 624,-0.00001309,0.00000138,-0.00012421,-0.00001096,0.00000449,0.000017
 24,-0.00000130,0.00000233,0.00000320,0.00000588,0.00000649,0.00982055,
 -0.16699426,0.21330877,-0.01695159,-0.05541377,-0.05398546,0.00129795,
 -0.00101457,0.00245426,0.00294172,-0.00232971,-0.00070283,-0.00174612,
 0.00485656,-0.00029427,-0.00065550,-0.00140341,0.00159055,-0.00306571,
 0.00077330,-0.00085823,0.00274779,0.00025180,-0.00101921,-0.00548986,-
 0.00046740,-0.00041947,0.00269329,0.00407329,-0.00132484,0.00033988,-0
 .00021302,0.00089012,-0.00196949,0.00059373,-0.00025845,-0.00056709,-0
 .00003348,0.00117850,-0.00020366,-0.00001662,0.00000719,-0.00007708,0.
 00005724,0.00001336,-0.00001342,-0.00008816,0.00010871,0.00260247,-0.0
 0008325,-0.00089686,0.00109418,-0.00112001,0.00138833,0.00008854,-0.00
 003203,-0.00003644,0.00018541,-0.00019798,-0.00010861,0.00000908,0.000
 40001,-0.00045099,0.00004369,-0.00009919,0.00009433,-0.00023213,-0.000
 04692,-0.00006884,0.00018340,-0.00008609,-0.00000480,0.32211016,0.0027
 0768,0.01656453,0.00292671,-0.00098111,-0.00185736,-0.00186254,-0.0020
 3262,0.00099599,0.00221250,0.00039904,0.00220056,0.00294709,0.00018507
 ,0.00020565,-0.00056741,0.00049785,-0.00026695,0.00033776,-0.00083001,
 -0.00010337,-0.00001229,0.00275893,-0.00003785,0.00108124,0.00004686,0
 .00174134,0.00212549,-0.00026807,0.00003511,-0.00024844,0.00056445,-0.
 00023375,0.00005086,0.00090753,-0.00024433,-0.00052114,0.00003609,-0.0
 0000214,-0.00002921,-0.00000816,0.00000702,0.00001159,0.00003320,0.000
 04297,-0.00000961,-0.00049909,-0.00008298,0.00021942,-0.00056046,0.000
 14341,-0.00086784,0.00002445,0.00002567,0.00003136,-0.00004318,0.00000
 599,-0.00003191,0.00008562,0.00036153,0.00005152,0.00000159,0.00012421
 ,0.00004341,0.00007335,0.00011464,0.00004729,-0.00002204,0.00007682,0.
 00005114,0.01694532,0.05957096,-0.05406118,-0.12475742,-0.13091649,0.0
 0508968,0.00136001,0.00720061,0.00770953,-0.00589074,-0.00196646,-0.00
 067846,0.01376459,0.00467669,-0.00044251,-0.00234572,0.00313919,-0.007
 09985,0.00126650,-0.00135661,0.00662590,0.00095986,-0.00206035,-0.0149
 1727,-0.00124253,-0.00119690,0.01009729,0.00505212,-0.00728786,-0.0014
 0228,0.00010000,0.00195064,-0.00493075,0.00107067,-0.00069644,-0.00078
 173,0.00077375,0.00225310,-0.00041637,-0.00004682,-0.00005010,-0.00011
 767,0.00010807,-0.00000110,-0.00004850,-0.00031049,0.00017006,0.005361
 60,0.00068718,-0.00306328,0.00173849,-0.00377090,0.00268386,0.00018059
 ,0.00006866,-0.00000813,0.00025004,-0.00027034,-0.00012131,0.00002808,
 0.00028460,-0.00095023,0.00002382,-0.00021145,0.00017172,-0.00040023,-
 0.00000909,0.00004349,0.00042134,-0.00025726,-0.00009036,-0.10477017,-
 0.00286359,0.00228276,0.00226369,0.06639984,0.06002640,0.00283999,-0.0
 0161339,-0.00501287,-0.00768641,0.00222708,0.00601608,0.00139645,0.004
 51843,0.00647852,0.00008468,0.00121149,-0.00035395,0.00273183,-0.00060
 085,0.00027249,-0.00244536,0.00036161,0.00143219,0.00485062,0.00341586
 ,-0.00171338,-0.00867547,-0.01295511,-0.00348073,0.00231162,-0.0016724
 2,-0.00137265,0.00295472,-0.00164581,0.00024554,0.00276472,0.00059350,
 -0.00152055,0.00011284,0.00015105,0.00016539,0.00005595,-0.00013502,-0
 .00005107,-0.00000967,0.00004804,-0.00007756,-0.00384248,-0.00010442,0
 .00201459,-0.00114154,0.00223865,-0.00311045,-0.00004717,0.00003540,0.
 00005937,-0.00027570,0.00006476,-0.00000398,0.00019138,-0.00022075,0.0
 0044557,0.00000265,0.00019554,-0.00010522,0.00027535,0.00013091,-0.000
 02336,-0.00014541,0.00004698,-0.00010842,0.02024413,-0.00938454,0.1124
 8222,-0.00220796,0.01491318,0.00390994,0.04001789,-0.00247280,-0.00054
 102,-0.00192678,-0.00250622,0.00357118,-0.00242439,0.00555998,-0.02169
 069,-0.01416750,-0.00029346,0.00158658,-0.00101696,0.00241839,-0.00068
 224,0.00047393,-0.00254121,0.00042054,0.00136063,0.00567225,0.00103433
 ,0.00004980,-0.00744298,-0.00748816,-0.00591784,0.00041026,-0.00132983
 ,-0.00023274,0.00225974,0.00065393,0.00098181,-0.00262353,-0.00187272,
 0.00006668,0.00000690,0.00006294,0.00015494,0.00000041,-0.00014287,-0.
 00006252,-0.00002782,-0.00003426,-0.00007727,-0.00164786,-0.00017657,0
 .00041084,0.00088052,0.00134094,0.00020776,-0.00008131,-0.00017867,-0.
 00009831,0.00015056,0.00011795,0.00020395,-0.00007177,-0.00012669,0.00
 017437,-0.00000832,-0.00012421,-0.00007461,0.00000906,-0.00027298,-0.0
 0057787,-0.00016066,-0.00001394,-0.00038153,0.04923347,-0.03254548,0.1
 1075159,-0.05806748,0.05412066,0.06276343,0.15830143,0.13623845,-0.006
 07636,-0.00364833,-0.01112713,-0.01116571,0.00873608,0.00357093,0.0004
 6019,-0.01916187,-0.00013707,0.00187975,0.00435790,-0.00588134,0.00994
 308,-0.00267317,0.00290421,-0.00952423,-0.00147485,0.00345327,0.019679
 62,0.00274691,0.00340802,-0.00764867,-0.00754895,0.01224093,-0.0013390
 2,0.00050061,-0.00244066,0.00749935,-0.00194577,0.00176480,0.00249596,
 -0.00132857,-0.00341437,0.00053745,-0.00002244,-0.00002922,0.00016292,
 -0.00018479,0.00000030,-0.00005650,0.00036939,-0.00015629,-0.00806951,
 -0.00110433,0.00440162,-0.00286562,0.00555341,-0.00481406,-0.00023949,
 -0.00012832,0.00001292,-0.00036902,0.00029586,0.00012034,-0.00006158,-
 0.00045062,0.00114719,0.00010768,0.00030024,-0.00010973,0.00048583,0.0
 0028353,-0.00006251,-0.00038912,0.00049925,0.00004080,0.10442041,-0.01
 112813,0.20737548,-0.14708395,-0.12940067,-0.35456621,0.00356640,0.008
 16301,0.00922016,-0.00154490,0.00092117,0.00004562,-0.00005985,0.00036
 407,-0.00122054,0.00000363,-0.00240284,-0.00091805,0.00050014,0.000574
 30,-0.00088835,0.00129202,-0.00037115,0.00048898,-0.00126097,-0.000102
 20,0.00028529,0.00235679,-0.00058506,0.00018949,-0.00045192,0.00019236
 ,0.00072582,-0.00068798,0.00044367,-0.00036662,0.00038978,-0.00009535,
 -0.00023042,0.00025486,0.00006991,-0.00042541,0.00012357,-0.00000052,-
 0.00002821,0.00004954,-0.00001401,-0.00000868,0.00004642,0.00004989,-0
 .00007355,-0.00108562,0.00000877,0.00053085,-0.00101312,0.00073426,-0.
 00049724,-0.00004478,0.00006017,0.00004306,-0.00009093,0.00012099,0.00
 004773,-0.00003715,-0.00022284,0.00024996,-0.00003009,0.00005797,-0.00
 003861,0.00015242,0.00003967,0.00010251,-0.00011345,0.00003967,0.00004
 171,-0.22982557,-0.00825231,0.04783011,-0.02629530,-0.00741604,-0.0411
 1457,0.45824704,-0.00154877,0.00142365,0.00135806,0.00069800,-0.000203
 66,-0.00031179,-0.00077545,-0.00088526,0.00067931,-0.00037211,0.000784
 84,0.00014626,0.00007013,0.00003412,0.00007266,0.00004715,-0.00001205,
 -0.00005079,0.00008777,0.00005708,0.00006280,-0.00021724,0.00025861,-0
 .00023312,-0.00029866,-0.00054725,-0.00008532,0.00002760,0.00000387,-0
 .00012225,0.00012283,-0.00018364,-0.00004338,0.00032137,0.00074436,-0.
 00014112,0.00001748,0.00000551,0.00000058,0.00001289,0.00000042,-0.000
 00241,0.00000196,0.00001113,-0.00000339,-0.00027779,-0.00010430,0.0003
 4412,0.00042254,0.00024493,0.00026198,-0.00002310,-0.00001203,-0.00002
 771,-0.00004785,-0.00001928,-0.00004115,0.00002075,-0.00004457,0.00004
 557,-0.00000588,0.00000489,-0.00002043,-0.00000032,-0.00003164,0.00000
 226,-0.00002020,0.00000241,0.00000390,-0.01043652,-0.06453574,0.004620
 07,0.00394619,-0.00034614,-0.00239965,-0.00515160,0.56297691,-0.003278
 24,-0.00479104,-0.00571803,0.00086472,0.00013449,0.00085760,0.00079763
 ,-0.00064007,-0.00027007,-0.00115306,0.00046934,-0.00071930,-0.0001910
 2,-0.00037820,0.00047366,-0.00082815,0.00024833,-0.00024313,0.00082329
 ,0.00000694,-0.00023553,-0.00188060,0.00009303,-0.00054529,0.00030273,
 0.00041821,-0.00044383,0.00029237,-0.00018911,0.00022874,-0.00043460,0
 .00020115,0.00034281,-0.00032353,-0.00007527,0.00031029,-0.00006278,-0
 .00000164,0.00001383,-0.00001543,0.00000774,0.00000064,-0.00001658,-0.
 00003709,0.00003574,0.00083340,0.00014547,-0.00013091,0.00026339,-0.00
 016195,0.00010583,0.00000557,-0.00004215,-0.00001763,0.00006300,-0.000
 07363,-0.00001381,0.00001710,0.00003170,-0.00008902,0.00003581,-0.0000
 4858,0.00001683,-0.00008276,0.00000118,-0.00003932,0.00005990,-0.00002
 228,-0.00000276,0.04942138,0.00433463,-0.09064251,-0.02322946,0.004203
 59,0.00634808,-0.00431378,-0.00430616,0.57810707,-0.00154721,-0.003355
 10,-0.00421143,0.00035184,0.00005494,0.00054158,0.00061885,-0.00044692
 ,-0.00014593,-0.00034486,0.00067740,0.00018851,-0.00012717,-0.00019850
 ,0.00028032,-0.00049451,0.00012471,-0.00013807,0.00046971,0.00004154,-
 0.00011616,-0.00103490,0.00004590,-0.00019485,0.00036044,0.00023770,-0
 .00025663,0.00014287,-0.00012007,0.00014694,-0.00040095,0.00010303,0.0
 0001506,-0.00010975,0.00010367,0.00025326,-0.00004138,-0.00000489,0.00
 000473,-0.00001562,0.00000274,0.00000029,-0.00001600,-0.00003119,0.000
 02203,0.00044534,0.00003271,-0.00026874,0.00028418,-0.00033192,0.00026
 956,0.00001716,-0.00000245,-0.00000982,0.00003154,-0.00003281,-0.00000
 400,-0.00001106,-0.00000053,-0.00011571,0.00001743,-0.00004042,0.00002
 114,-0.00005669,-0.00001584,-0.00004485,0.00004340,-0.00001263,-0.0000
 0419,-0.02809685,0.00209814,-0.04046234,0.00123567,0.00216824,0.011626
 22,-0.07542426,0.00220198,-0.08081657,0.09461587,0.00025109,-0.0001751
 7,-0.00023269,-0.00001798,-0.00001863,0.00009832,0.00011516,0.00024847
 ,-0.00017360,-0.00011238,-0.00019944,-0.00031458,-0.00000556,-0.000012
 84,0.00000065,-0.00001943,0.00000187,-0.00000437,0.00002491,-0.0000055
 6,-0.00001136,-0.00007459,0.00001428,0.00001403,0.00006322,0.00005123,
 0.00002024,-0.00000450,-0.00000259,0.00002347,-0.00001591,0.00011169,0
 .00011339,-0.00024331,-0.00004132,0.00019941,-0.00000221,-0.00000016,0
 .00000167,-0.00000124,0.00000142,0.00000070,-0.00000431,-0.00000457,0.
 00000105,0.00009623,0.00002592,-0.00010500,-0.00001760,-0.00007989,-0.
 00000203,0.00001015,-0.00001961,-0.00000831,0.00001009,-0.00000382,0.0
 0000790,-0.00002857,-0.00003196,-0.00003188,-0.00001151,-0.00005317,-0
 .00000328,-0.00000094,0.00000361,0.00000409,0.00000381,-0.00000053,0.0
 0000140,-0.00018686,0.00158201,-0.00133583,0.00002252,0.00006718,0.000
 18446,0.00224751,-0.04810339,0.00802806,-0.00281822,0.04440346,0.00058
 573,0.00011485,0.00058429,-0.00012858,-0.00010119,-0.00004283,0.000032
 93,0.00027141,-0.00007144,0.00007384,-0.00014133,-0.00024939,-0.000038
 94,-0.00000740,0.00000197,0.00002885,0.00000728,-0.00000616,-0.0000448
 4,-0.00000641,0.00001017,0.00010486,0.00002754,0.00003513,-0.00011195,
 -0.00004977,0.00001614,0.00006389,-0.00002451,0.00002323,0.00001578,0.
 00002544,0.00005130,-0.00019880,-0.00001983,0.00009730,-0.00000335,-0.
 00000042,0.00000307,-0.00000391,-0.00000142,0.00000018,-0.00000300,-0.
 00000111,0.00000198,0.00001536,0.00001420,-0.00012832,-0.00004087,-0.0
 0008456,0.00002575,0.00001128,-0.00001926,-0.00000085,0.00000692,0.000
 00947,0.00000568,-0.00002155,0.00000254,-0.00002352,-0.00001408,-0.000
 03007,-0.00000191,0.00001321,0.00001421,0.00004212,0.00000012,0.000001
 21,-0.00000300,-0.00626975,0.00009155,0.00375764,0.00015872,-0.0005189
 1,0.00275333,-0.08232855,0.00793446,-0.27243842,0.09695762,-0.00830014
 ,0.29141743,-0.00111116,-0.00141260,-0.00243562,0.00014309,-0.00014438
 ,0.00024912,-0.00022752,-0.00073125,-0.00018215,-0.00060519,-0.0001995
 7,-0.00012321,-0.00007254,-0.00011293,0.00017459,-0.00023380,0.0000788
 9,-0.00011386,0.00028717,-0.00000336,-0.00008145,-0.00056990,0.0001702
 1,-0.00005913,0.00010689,-0.00003115,-0.00004862,0.00013942,-0.0000756
 1,0.00001802,-0.00007360,-0.00008064,0.00002048,0.00030505,-0.00012245
 ,-0.00017783,-0.00001503,0.00000232,0.00000336,-0.00000506,0.00000615,
 0.00000367,-0.00000577,-0.00000332,0.00001594,0.00012528,0.00012125,-0
 .00000937,0.00007794,0.00001196,0.00014560,-0.00001017,0.00001937,-0.0
 0000170,-0.00001585,0.00000391,0.00001976,0.00001715,0.00002801,-0.000
 03213,-0.00000407,-0.00001573,-0.00001309,-0.00003130,-0.00000308,0.00
 001691,0.00001757,-0.00000421,-0.00000317,-0.03459477,0.02750026,0.018
 03675,0.00430893,0.00056468,0.00641750,-0.06924925,0.06095564,0.038196
 43,0.00504584,-0.00919317,-0.00496607,0.09153994,0.00057187,0.00078682
 ,0.00087922,-0.00028775,0.00015543,0.00028772,-0.00031379,-0.00024287,
 -0.00095770,-0.00026722,-0.00132555,-0.00106086,0.00000667,0.00003087,
 -0.00005028,0.00006411,-0.00001701,0.00002832,-0.00007819,-0.00001131,
 0.00002288,0.00015378,-0.00008025,0.00003833,-0.00003826,-0.00001356,-
 0.00000133,-0.00002937,0.00001318,-0.00000285,-0.00027959,-0.00013100,
 0.00004151,-0.00054311,-0.00056408,-0.00039035,0.00000314,-0.00000149,
 -0.00000134,0.00000081,-0.00000243,-0.00000126,0.00000167,-0.00000052,
 -0.00000381,0.00017148,-0.00000354,-0.00007428,-0.00026482,0.00007118,
 -0.00016763,0.00000833,0.00002235,0.00002408,0.00000197,0.00006006,0.0
 0006445,-0.00001261,-0.00001767,-0.00000640,0.00001065,0.00002081,0.00
 002248,0.00005237,0.00007043,0.00011623,-0.00000379,0.00000142,-0.0000
 0118,0.00724560,0.00948458,0.00374312,-0.00153838,-0.00078507,-0.00235
 862,0.06183519,-0.21136779,-0.10142244,-0.00140703,0.00172030,0.001135
 45,-0.07232499,0.22290753,0.00030468,0.00020279,0.00143811,-0.00011707
 ,0.00005891,-0.00023763,-0.00038729,0.00006607,-0.00017642,-0.00059991
 ,-0.00124703,-0.00087744,0.00007604,0.00011205,-0.00012619,0.00019840,
 -0.00006843,0.00007170,-0.00019957,-0.00001141,0.00003547,0.00047940,-
 0.00008533,0.00015059,-0.00002874,-0.00004073,-0.00003007,-0.00012612,
 0.00006335,-0.00008086,0.00023593,0.00008275,-0.00019917,-0.00024401,-
 0.00104185,-0.00117966,0.00001825,0.00000005,-0.00000675,0.00000659,-0
 .00000131,-0.00000046,0.00001040,0.00001306,-0.00001000,-0.00029848,-0
 .00004120,0.00025610,-0.00020856,0.00018698,-0.00032193,-0.00001414,0.
 00005692,0.00002018,-0.00001043,0.00003075,0.00000943,0.00002877,0.000
 01277,0.00007507,0.00003026,0.00009392,0.00002101,0.00003292,0.0000803
 4,0.00000419,-0.00001935,0.00000402,0.00000236,0.00453776,-0.00185797,
 0.00164798,-0.00025028,0.00137355,-0.00064484,0.04313978,-0.10173764,-
 0.11596454,0.00901164,-0.02344853,-0.01421167,-0.05084192,0.11491528,0
 .12194386,-0.00063040,-0.00151187,-0.00215600,0.00011433,-0.00026939,-
 0.00010039,-0.00005003,0.00014059,0.00023013,-0.00014036,0.00033219,0.
 00003010,-0.00004101,-0.00006952,0.00008320,-0.00017420,0.00002719,-0.
 00004274,0.00015989,0.00001714,-0.00004151,-0.00023655,0.00004501,0.00
 003812,0.00029355,0.00019884,-0.00003755,0.00002804,-0.00002947,0.0000
 6534,0.00000382,0.00002183,0.00008698,-0.00008021,-0.00005399,0.000100
 08,-0.00001766,-0.00000081,-0.00000108,-0.00000766,0.00000379,0.000002
 80,-0.00000496,-0.00000293,0.00001103,0.00018204,-0.00001112,-0.000110
 25,0.00009298,-0.00012425,0.00003657,0.00000894,-0.00001170,-0.0000073
 9,0.00001465,-0.00000891,0.00000643,-0.00000034,0.00004587,-0.00004240
 ,0.00000018,-0.00002081,0.00000411,-0.00001604,0.00000336,-0.00000463,
 0.00001342,-0.00000252,-0.00000041,-0.03309285,-0.03198384,0.01465383,
 0.00414725,0.00111382,0.00752398,-0.05976747,-0.04977879,0.02464984,0.
 00404105,0.00991361,-0.00389488,0.00471071,0.00726125,-0.00476494,0.08
 044890,-0.00044206,-0.00123316,-0.00117051,-0.00011533,-0.00002582,0.0
 0008195,0.00027244,-0.00003260,-0.00022275,0.00009323,-0.00019865,0.00
 003159,-0.00005713,-0.00004592,0.00005169,-0.00010459,0.00002816,-0.00
 002142,0.00005472,0.00000549,-0.00003847,-0.00003008,-0.00004192,0.000
 07121,0.00007475,0.00009538,-0.00011074,0.00004250,-0.00003261,0.00005
 768,-0.00018223,-0.00001465,-0.00021740,-0.00018133,-0.00014599,0.0000
 8031,-0.00001386,0.00000064,0.00000325,-0.00000754,0.00000041,0.000000
 88,-0.00000055,-0.00000180,0.00000584,-0.00000901,0.00003122,0.0000406
 1,0.00001741,0.00004990,0.00005815,0.00001076,0.00000796,0.00000730,0.
 00002798,-0.00002998,-0.00002103,0.00000771,0.00003775,-0.00002140,0.0
 0001960,0.00002377,0.00001991,-0.00002472,-0.00002189,-0.00008043,0.00
 000998,-0.00000605,-0.00000474,-0.01116135,0.00662694,-0.00129861,0.00
 233032,0.00146539,0.00283004,-0.05130864,-0.24015598,0.09386575,0.0009
 2580,0.00052123,-0.00034328,-0.00500420,-0.02078082,0.01222789,0.06475
 542,0.25387360,0.00056595,0.00131136,0.00092672,-0.00016106,0.00007005
 ,-0.00011950,-0.00013835,-0.00001605,0.00001155,0.00008966,-0.00005418
 ,0.00009031,0.00006675,0.00007817,-0.00012255,0.00020156,-0.00005641,0
 .00006726,-0.00019602,-0.00000673,0.00004614,0.00038557,-0.00004028,0.
 00003343,-0.00011194,0.00003435,0.00021312,-0.00007315,0.00005284,-0.0
 0006045,0.00004604,-0.00005290,-0.00009209,0.00010335,0.00009890,-0.00
 006762,0.00001958,0.00000050,-0.00000377,0.00000710,-0.00000147,-0.000
 00163,0.00000531,0.00000985,-0.00000906,-0.00019291,0.00000363,0.00010
 285,-0.00006246,0.00014520,-0.00003224,-0.00000293,0.00000408,-0.00000
 137,-0.00001414,0.00000312,-0.00000312,-0.00000638,-0.00002864,0.00002
 205,-0.00000745,0.00000273,-0.00000581,0.00001442,-0.00001382,-0.00003
 300,-0.00001839,0.00000756,0.00000901,0.00536434,0.00343651,0.00305490
 ,-0.00229920,-0.00355342,-0.00239726,0.02951153,0.09399429,-0.09932704
 ,0.00745038,0.02527276,-0.01164918,-0.00422879,-0.01481874,0.00839158,
 -0.03631837,-0.10588326,0.10095676\\0.00000135,-0.00000272,-0.00000359
 ,-0.00000137,0.00000284,0.00000004,-0.00000120,-0.00000033,0.00000106,
 0.00000147,-0.00000027,0.00000113,0.00000090,0.00000101,-0.00000457,-0
 .00000066,0.00000168,-0.00000399,-0.00000121,0.00000153,-0.00000226,-0
 .00000027,0.00000016,-0.00000178,0.00000134,0.00000130,-0.00000125,0.0
 0000154,0.00000023,-0.00000374,-0.00000128,0.00000006,0.00000342,0.000
 00167,-0.00000198,0.00000223,0.00000134,0.00000111,-0.00000589,-0.0000
 0127,0.00000240,-0.00000461,-0.00000264,0.00000235,-0.00000174,-0.0000
 0040,-0.00000136,0.00000462,0.00000100,-0.00000214,0.00000407,-0.00000
 098,-0.00000138,0.00000592,0.00000171,-0.00000291,0.00000497,-0.000002
 59,0.00000076,0.00000091,-0.00000191,0.00000021,0.00000330,0.00000296,
 -0.00000265,0.00000218,0.00000280,-0.00000050,-0.00000432,-0.00000085,
 -0.00000017,-0.00000151,0.00000213,0.,0.00000265,-0.00000085,0.0000001
 8,-0.00000070,-0.00000280,0.00000102,0.00000127,-0.00000026,-0.0000002
 3,0.00000199,0.00000033,-0.00000022,0.00000018\\\@
 The archive entry for this job was punched.


 IN SO FAR AS QUANTUM MECHANICS IS CORRECT, CHEMICAL 
 QUESTIONS ARE PROBLEMS IN APPLIED MATHEMATICS.

                    -- EYRING, WALTER, & KIMBALL, 1944
 Job cpu time:       0 days 10 hours 42 minutes 17.9 seconds.
 Elapsed time:       0 days  0 hours 40 minutes 18.4 seconds.
 File lengths (MBytes):  RWF=   1344 Int=      0 D2E=      0 Chk=     44 Scr=     16
 Normal termination of Gaussian 16 at Sun Aug 16 13:20:52 2020.
