
 *******************************************************************************
 *                                                                             *
 *  --------------------------------                                           *
 *   Amsterdam Modeling Suite (AMS)              2019.305                      *
 *  --------------------------------                                           *
 *                                               r84706 2020-05-29             *
 *                                                                             *
 *                                                                             *
 *                            =====================                            *
 *                            |                   |                            *
 *                            |     D I R A C     |                            *
 *                            |                   |                            *
 *                            =====================                            *
 *                                                                             *
 *                                                                             *
 *   Online information and documentation:  https://www.scm.com/support/       *
 *   E-mail:  support@scm.com   info@scm.com                                   *
 *                                                                             *
 *   Scientific publications using AMS results must be properly referenced     *
 *   See the User Manuals (or the web site) for recommended citations          *
 *   The terms and conditions of the End User License Agreement apply to       *
 *   the use of AMS, https://www.scm.com/license-terms/                        *
 *                                                                             *
 **********************  x86_64_linux_intel / intelmpi  ************************
 
 Licensed to: Prof. Polimeno / Universit? degli Studi di Padova Dpt. Chemistry / TC Research Group / Padua / ITALY
 SCM User ID: u7630
  
 DIRAC 2019.305  RunTime: Oct06-2020 19:23:28  Nodes: 1  Procs: 1

 Temporary files are created in /tmp/kid_0.460289619 (0x58465342)

1
 HYDROGEN ATOM RELATIVISTIC, Point Nuc, A and c from libtc   
 N J RN H ZN XION ANUC CLIGHT
 5000    1100.00000000197.36710137  1.00000000  0.00000000    1.007825  0.1370360E+03
  PH   PHI     EPS        DEL        DELRVR
  0.30  0.30     2500.00  0.00001000  0.00001000
 IDIRC  NC1  NDEBU NPRIN  IPUN IRCOR IWCOR
   1   300     0     0     0     0     0
   XALPHA      XLATTER      RNUC
  0.70000000  0.00000000  0.00000000 Point Charge
   XN   XL   XJ      XE          XZ      XDELL
  1.0  0.0  0.5      -1.000       1.000     0.00000
 ICORP=  0  NPCL=  0  DEMP=0.00  PEPS=0.000000
 R(1)=  0.1000000E-08 D=  0.1005080E+01 RNUC=  0.0000000E+00
 converged at cycle   32  DENSITY AVERAGING    0.2400
  MAXIMUM ERROR IN R.V(R) IS   0.79874357E-05
 Q,EY,EV,EZ,ESUM,ETOT,RHO  0.100000E+01 -0.266614E+00 -0.619969E+00 -0.910779E+00 -0.203940E+00 -0.415998E+00  0.337036E-17


 DIRAC CALCULATION
1                    HYDROGEN ATOM RELATIVISTIC, Point Nuc, A and c from libtc


 EXCHANGE COEFFICIENT=  0.7000000           TAIL CORRECTION=  0.           NUCLEAR RADIUS=  0.000E+00
0                       ORBITAL    N    L    J     ELECTRONS     EIGENVALUE                DELTA OF EIGENV.

                          1S1/2  1.0  0.0  0.5     1.000       -0.2039397E+00                 0.2720093E-06


                                        NUCLEAR CHARGE=    1.000000
                            INTEGRAL OF CHARGE DENSITY=    1.000000
                           SUM OF THE ORBITAL ENERGIES=     -0.2039
                                          TOTAL ENERGY=     -0.4160
                                        KINETIC ENERGY=      0.4160
                             NUCLEAR ATTRACTION ENERGY=     -0.9108
                             ELECTRON REPULSION ENERGY=      0.2787
                                       EXCHANGE ENERGY=     -0.2000

 *******************************************************************************

                             D I R A C   E X I T
 NORMAL TERMINATION



 =================
 Timing Statistics
 =================
  
 Total Used :                     CPU=        0.08      System=        0.00     Elapsed=        0.12

 Calls  Section                     ( Mean, Percentage )
 ---------------------------------------------------------------------------------------------------
     2  ><      ................      0.00    0.01             0.00    0.30             0.00    0.01
     1  EXIT PROCEDURE .........      0.08   99.99             0.00   99.70             0.12   99.99


 Currently Open Files (EXIT00)
 ====================

 Unit    Access Format  Status   Type       Ident (file)
 -------------------------------------------------------
   3      SEQ    FORM   TRANSP  NORMAL      LOGFILE
                                          ( logfile )
 
Create H   file=TZP-H
XC
  GGA OPBE
End
relativistic ZORA
Corepotentials t12.rel
End

 *******************************************************************************
 *                                                                             *
 *  --------------------------------                                           *
 *   Amsterdam Modeling Suite (AMS)              2019.305                      *
 *  --------------------------------                                           *
 *                                               r84706 2020-05-29             *
 *                                                                             *
 *                                                                             *
 *                              =================                              *
 *                              |               |                              *
 *                              |     A D F     |                              *
 *                              |               |                              *
 *                              =================                              *
 *                                                                             *
 *                                                                             *
 *   Online information and documentation:  https://www.scm.com/support/       *
 *   E-mail:  support@scm.com   info@scm.com                                   *
 *                                                                             *
 *   Scientific publications using AMS results must be properly referenced     *
 *   See the User Manuals (or the web site) for recommended citations          *
 *   The terms and conditions of the End User License Agreement apply to       *
 *   the use of AMS, https://www.scm.com/license-terms/                        *
 *                                                                             *
 **********************  x86_64_linux_intel / intelmpi  ************************
 
 Licensed to: Prof. Polimeno / Universit? degli Studi di Padova Dpt. Chemistry / TC Research Group / Padua / ITALY
 SCM User ID: u7630
  
 ADF 2019.305  RunTime: Oct06-2020 19:23:29  Nodes: 1  Procs: 1

 Temporary files are created in /tmp/kid_0.623537843 (0x58465342)

           0  CUDA devices found
 A CUDA error was found during GPU init, disabling GPU. mynoderank:           0
 Hydrogen (TZP)



 ===========================
 A T T A C H E D   F I L E S
 ===========================
  
 CREATE - Data File:    TZP-H
                        Hydrogen (TZP)
 Core Potentials:
         file : t12.rel



 ===============================
 M O D E L   P A R A M E T E R S
 ===============================
  
 DENSITY FUNCTIONAL POTENTIAL (scf)
    LDA:                               VWN                                      
    Gradient Corrections:              OPTX PBEc                               == Not Default ==

 SPIN  (restricted / unrestr.)
    Molecule:                          Restricted                               

 OTHER ASPECTS
    Relativistic Corrections:          scalar (ZORA,MAPA)                      == Not Default ==

    Nuclear Charge Density Model:      Point Charge Nuclei                      
    Core Treatment:                    Frozen Orbital(s)                        

    Hyperfine or Zeeman Interaction:   ---                                      



 =====================================
 S Y M M E T R Y ,   E L E C T R O N S
 =====================================
  
 Symmetry: ATOM

 Irreducible Representations, including subspecies
 -------------------------------------------------
 S
 P:x  P:y  P:z
 D:z2  D:x2-y2  D:xy  D:xz  D:yz
 F:z3  F:z  F:xyz  F:z2x  F:z2y  F:x  F:y


 Configuration of Valence Electrons
 ==================================

          Occupation Numbers
          -------------------------------------------------
 S        1
 P        0
 D        0
 F        0
          -------------------------------------------------

 Total:   1

 Net Charge: 0 (Nuclei minus Electrons)

 Preset values for MO occupations will be applied through SCF cycle no. 1000000
 Thereafter, the program will assign electrons to MOs that are spatially
 similar to the occupied MOs in a "reference" cycle ("KeepOrbitals").
 The reference cycle is always the PREVIOUS cycle: it will evolve with
 the SCF procedure.



 ================================
 (Slater-type)  F U N C T I O N S  ***  (Basis and Fit)  ***
 ================================
  

 Atom Type    1  (H)
 ==============

 Valence Basis Sets:   4
 -----------------------
   1 S    0.690000
   1 S    0.920000
   1 S    1.580000
   2 P    1.250000


 BAS: List of all Elementary Cartesian Basis Functions
 =====================================================

 The numbering in the list below (to the right of the function characteristics) is referred
 to in print-outs of MO eigenvectors and Mulliken populations in the BAS representation
 (as contrasted to the SFO representation).

 Notes:
 1. The functions are characterized by a polynomial prefactor (powers of x,y,z and r) and
    an exponential decay factor alpha.
 2. Since the basis sets are specific for an atom TYPE, the individual functions occur on
    all atoms of that type.
 3. The word 'Core' in the left margin signals that it is a Core Function (CF) : not a
    degree of freedom in the valence set, but only used to ensure orthogonalization of
    the other valence basis functions on the frozen Core Orbitals.


 (power of) X  Y  Z  R     Alpha  on Atom
            ==========     =====     ==========

 H                                    1
                                  ---------------------------------------------------------------------------
            0  0  0  0     0.690      1
            0  0  0  0     0.920      2
            0  0  0  0     1.580      3
            1  0  0  0     1.250      4
            0  1  0  0     1.250      5
            0  0  1  0     1.250      6

 Total number of charge fitting functions (nprimf)        50
 Total number of Cartesian basis functions (naos)          6
 Total number of Cartesian core functions  (ncos)          0



 BAS: List of all Elementary Cartesian Basis Functions
 =====================================================

 The numbering in the list below (to the right of the function characteristics) is referred
 to in print-outs of MO eigenvectors and Mulliken populations in the BAS representation
 (as contrasted to the SFO representation).

 Notes:
 1. The functions are characterized by a polynomial prefactor (powers of x,y,z and r) and
    an exponential decay factor alpha.
 2. Since the basis sets are specific for an atom TYPE, the individual functions occur on
    all atoms of that type.
 3. The word 'Core' in the left margin signals that it is a Core Function (CF) : not a
    degree of freedom in the valence set, but only used to ensure orthogonalization of
    the other valence basis functions on the frozen Core Orbitals.


 (power of) X  Y  Z  R     Alpha  on Atom
            ==========     =====     ==========

 H                                    1
                                  ---------------------------------------------------------------------------
            0  0  0  0     0.690      1
            0  0  0  0     0.920      2
            0  0  0  0     1.580      3
            1  0  0  0     1.250      4
            0  1  0  0     1.250      5
            0  0  1  0     1.250      6
1
 ***************************************************************************************************



                                              ***********************
                                              *  T E C H N I C A L  *
                                              ***********************
  



 =============================================================
 P A R A L L E L I Z A T I O N  and  V E C T O R I Z A T I O N
 =============================================================
  
 Nr of parallel processes:                                1
 Maximum vector length in NumInt loops:                 128



 =====================
 S C F   U P D A T E S
 =====================
  
 Max. nr. of cycles:                               300
 Convergence criterion:                              0.0000000100
   secondary criterion:                              0.0000000100

 Mix parameter (when DIIS does not apply):           0.2000000000
 Special mix parameter for the first cycle:          1.0000000000
 Mixed ADIIS+SDIIS will be used                  
    Max number of expansion vectors:                10
    Pure ADIIS when Max([F,P]) is above              0.1000000000
    Pure SDIIS when Max([F,P]) is below              0.0010000000
 Automatic ElectronSmearing (in case of problematic SCF convergence) disabled



 =================
 P R E C I S I O N  ***  (General: NumInt, NeglectFunctionTails, ...)  ***
 =================
  

 NumInt:           Target precision:                12.0000000000
 -------           Initial precision:               10.0000000000
                   Min. precision (optimization):   10.0000000000

 Neglect Functions:          Basis functions:        0.1000000000E-13
 ------------------          Fit functions:          0.1000000000E-13



 ===========================
 L I N E A R   S C A L I N G
 ===========================
  

 Cut-off radii density fit:                        0.1000000000E-97
 Overlap cut-off criterion AO matrix elements:     0.1000000000E-97
 Cut-offs for Coulomb potential and fitted density:0.1000000000E-97
 Cut-off criterion for Coulomb multipole terms:    0.1000000000E-97
 Progressive Convergence parameter:                 0.000000000    
1
 ***************************************************************************************************



                                            ***************************
                                            *  C O M P U T A T I O N  *
                                            ***************************
  

 Number of elements of the density matrix on this node (used, total):        21        21



 ===========================================
 Numerical Integration : Fuzzy Cells (Becke)
 ===========================================
  
 Becke grid quality: VERYGOOD       
  
 Lebedev angular grid order:             min:  13 max:  41
 Nr. of radial points:                   min:  64 max:  64

 Total nr. of points:         64
 Nr. of blocks:                1
 Block length:                64
 Nr. of dummy points:          0


 Test of Precision of the Numerical Integration Grid
 ===================================================

 Integral of the Total Core Density:                   0.00000000000000



 ========================
 Density Fitting (zlmFit)
 ========================
  
 ZlmFit Fit Quality: VERYGOOD       
  
 Max L-expansion:                        min:   0 max:   0
 Nr. of radial interpolation points:     min: 120 max: 120



 =====
 S C F  ***  ScaSCF  ***
 =====
  

 CYCLE    1
 SCF Error: norm([F,P])=      0.000000000000, max([F,P])=      0.000000000000
 orbitals (Q,E):
 ---------------
 S :1...3            ( 1.00    -0.5000)  ( 0.00    -0.0900)  ( 0.00     1.2936)
 P :1...1            ( 0.00     0.1562)

 CYCLE    2
 SCF Error: norm([F,P])=      0.028189184500, max([F,P])=      0.027131992547
 orbitals (Q,E):
 ---------------
 S :1...2            ( 1.00    -0.2234)  ( 0.00     0.0922)
 P :1...1            ( 0.00     0.4200)

 CYCLE    3
  SDIIS (wt  0.000):  0.2138  0.7862
 A-DIIS (wt  1.000):  0.0000  1.0000
  DIIS coefficients:  0.0000  1.0000
 SCF Error: norm([F,P])=      0.007919932475, max([F,P])=      0.007899061794
 orbitals (Q,E):
 ---------------
 S :1...2            ( 1.00    -0.2417)  ( 0.00     0.0838)
 P :1...1            ( 0.00     0.4051)

 CYCLE    4
  SDIIS (wt  0.992):  0.1821  0.8179
 A-DIIS (wt  0.008):  0.0000  1.0000
  DIIS coefficients:  0.1807  0.8193
 SCF Error: norm([F,P])=      0.001772740426, max([F,P])=      0.001768646302
 orbitals (Q,E):
 ---------------
 S :1...2            ( 1.00    -0.2379)  ( 0.00     0.0851)
 P :1...1            ( 0.00     0.4083)

 CYCLE    5
  SDIIS (wt  1.000):  0.0222  0.9778
  DIIS coefficients:  0.0222  0.9778
 SCF Error: norm([F,P])=      0.000044616568, max([F,P])=      0.000041102460
 orbitals (Q,E):
 ---------------
 S :1...2            ( 1.00    -0.2379)  ( 0.00     0.0851)
 P :1...1            ( 0.00     0.4083)

 CYCLE    6
  SDIIS (wt  1.000): -0.0877  1.0877
  DIIS coefficients: -0.0877  1.0877
 SCF Error: norm([F,P])=      0.000003607048, max([F,P])=      0.000003226748
 orbitals (Q,E):
 ---------------
 S :1...2            ( 1.00    -0.2379)  ( 0.00     0.0851)
 P :1...1            ( 0.00     0.4083)

 CYCLE    7
  SDIIS (wt  1.000): -0.0186  1.0186
  DIIS coefficients: -0.0186  1.0186
 SCF Error: norm([F,P])=      0.000000066958, max([F,P])=      0.000000064291
 orbitals (Q,E):
 ---------------
 S :1...2            ( 1.00    -0.2379)  ( 0.00     0.0851)
 P :1...1            ( 0.00     0.4083)

 CYCLE    8
  SDIIS (wt  1.000):  0.0482  0.9518
  DIIS coefficients:  0.0482  0.9518
 SCF Error: norm([F,P])=      0.000000003393, max([F,P])=      0.000000003277
 orbitals (Q,E):
 ---------------
 S :1...2            ( 1.00    -0.2379)  ( 0.00     0.0851)
 P :1...1            ( 0.00     0.4083)

 SCF CONVERGED

 CYCLE    9
1
 ***************************************************************************************************



                                                *******************
                                                *  R E S U L T S  *
                                                *******************
  
 *** Using FIT density in Focky
  SDIIS (wt  1.000):  0.0049  0.9951
  DIIS coefficients:  0.0049  0.9951
 SCF Error: norm([F,P])=      0.000000000017, max([F,P])=      0.000000000016

 Scaled ZORA Orbital Energies, per Irrep and Spin:
 =================================================
                        Occup              E (au)              E (eV)       Diff (eV) with prev. cycle
                        -----      --------------------        ------       --------------------------
 S
               1        1.000     -0.23791281133841E+00        -6.474              -6.35E-10
               2        0.000      0.85111723736153E-01         2.316
               3        0.000      0.15412975544925E+01        41.941
 P
               1        0.000      0.40828303927575E+00        11.110


 Partially Occupied:
               1 S                -0.23791281133841E+00
  
 LUMO :        2 S                 0.85111723736153E-01
  


 Orbital Energies, all Irreps
 ========================================

 Irrep        no.  (spin)   Occup              E (au)                E (eV)
 ---------------------------------------------------------------------------
 S             1             1.00       -0.23791281133841E+00        -6.4739
 S             2             0.00        0.85111723736153E-01         2.3160
 P             1             0.00        0.40828303927575E+00        11.1099
 S             3             0.00        0.15412975544925E+01        41.9408


 All Electron Calculation, thus no Orbital Energies of the Core Orbitals are calculated



 =======================================
 M U L L I K E N   P O P U L A T I O N S
 =======================================
  
 The survey below gives for each atom:
 a) the total charge (Z minus electrons)
 b) the net spin polarization (nr of electrons spin-A minus spin-B)
 c) for each spin the atomic electron valence density (integrated) per L-value.

 Atom              Charge    Spin density          S         P         D         F
 ----              ------    ------------       ------    ------    ------    ------
 1 H               0.0000                       1.0000    0.0000    0.0000    0.0000

 Populations of individual BAS functions
 ----------------------------------------
 1 H            0.1547  0.7439  0.1013  0.0000  0.0000  0.0000

 Gross Charges per Atom (Z minus electrons)
 ==========================================
             0.0000
 Net Total:  0.00000000



 =======================================================================
 Electrostatic potential at the Nuclei due to electrons and other nuclei
 =======================================================================
  
         Atom                  Potential
         ----                  ---------
     1)   H                   0.95129725
 
 
 ========================
 No memory problems found
 ========================
 
 Maximum number of active allocate calls:         306
 
 *******************************************************************************

                             A D F   E X I T
 NORMAL TERMINATION



 =================
 Timing Statistics
 =================
  
 Total Used :                     CPU=        0.44      System=        0.04     Elapsed=        0.58

 Calls  Section                     ( Mean, Percentage )
 ---------------------------------------------------------------------------------------------------
     3  ><      ................      0.00    0.65             0.00    3.33             0.00    1.58
     1  INIT    ................      0.09   21.26             0.01   21.54             0.13   22.77
     1  GEOMET  ................      0.01    3.39             0.01   27.78             0.03    5.18
     1  INPUTA  ................      0.00    0.88             0.00    0.00             0.00    0.66
     1  MAINSY  ................      0.01    2.37             0.00    6.17             0.02    4.00
     1  SYMFIT  ................      0.00    0.23             0.00    2.77             0.00    0.35
     1  CORORT  ................      0.00    0.23             0.00    0.00             0.00    0.69
     1  SYMORB  ................      0.00    0.14             0.00    2.49             0.00    0.27
     1  CLSMAT  ................      0.01    1.29             0.00    0.49             0.01    1.43
     1  ORTHON  ................      0.01    1.24             0.00    0.23             0.01    1.39
     1  GENPT   ................      0.01    2.95             0.00    2.24             0.02    3.19
     1  PTBAS   ................      0.00    0.95             0.00    2.39             0.01    1.31
     9  FOCKY   ................      0.02   49.83             0.00   24.24             0.03   40.04
     9  FOCKTR  ................      0.00    1.18             0.00    0.33             0.00    0.92
     9  SDIIS   ................      0.00    5.08             0.00    2.99             0.01    8.44
     1  COREPS  ................      0.02    3.45             0.00    2.79             0.02    2.78
     1  POPAN   ................      0.00    1.13             0.00    0.10             0.01    1.28
     1  DEBYE   ................      0.00    0.39             0.00    0.02             0.00    0.74
     1  EXIT PROCEDURE .........      0.01    3.36             0.00    0.10             0.02    2.96


 Currently Open Files (EXIT00)
 ====================

 Unit    Access Format  Status   Type       Ident (file)
 -------------------------------------------------------
   3      SEQ    FORM   TRANSP  NORMAL      LOGFILE
                                          ( logfile )

 ***************************************************************************************************
 (LOGFILE)
 <Oct06-2020> <19:23:28>  DIRAC 2019.305  RunTime: Oct06-2020 19:23:28  Nodes: 1  Procs: 1
 <Oct06-2020> <19:23:28>  NORMAL TERMINATION
 <Oct06-2020> <19:23:28>  END
 <Oct06-2020> <19:23:29>  ADF 2019.305  RunTime: Oct06-2020 19:23:29  Nodes: 1  Procs: 1
 <Oct06-2020> <19:23:29>  Hydrogen (TZP)
 <Oct06-2020> <19:23:29>  RunType   : CREATE
 <Oct06-2020> <19:23:29>  Net Charge: 0 (Nuclei minus Electrons)
 <Oct06-2020> <19:23:29>  Symmetry  : ATOM
  Coordinates
    Atom         X           Y           Z   (Angstrom)
    1.H         0.000000    0.000000    0.000000
 <Oct06-2020> <19:23:29>  >>>> CORORT
 <Oct06-2020> <19:23:29>  >>>> CLSMAT
 <Oct06-2020> <19:23:29>  >>>> ORTHON
 <Oct06-2020> <19:23:29>  >>>> GENPT
 <Oct06-2020> <19:23:29>  Block Length=  64
 <Oct06-2020> <19:23:29>  >>>> PTBAS
 <Oct06-2020> <19:23:29>  >>>> CYCLE
 <Oct06-2020> <19:23:29>              |Error|         MaxErr       Wt(A-DIIS)
 <Oct06-2020> <19:23:29>      1      0.00000000      0.00000000
 <Oct06-2020> <19:23:29>      2      0.02818918      0.02713199
 <Oct06-2020> <19:23:29>      3      0.00791993      0.00789906    100.0
 <Oct06-2020> <19:23:29>      4      0.00177274      0.00176865      0.8
 <Oct06-2020> <19:23:29>      5      0.00004462      0.00004110      0.0
 <Oct06-2020> <19:23:29>      6      0.00000361      0.00000323      0.0
 <Oct06-2020> <19:23:29>      7      0.00000007      0.00000006      0.0
 <Oct06-2020> <19:23:29>      8      0.00000000      0.00000000      0.0
 <Oct06-2020> <19:23:29>  SCF converged
 <Oct06-2020> <19:23:29>      9      0.00000000      0.00000000      0.0
 <Oct06-2020> <19:23:29>  >>>> POPAN
 <Oct06-2020> <19:23:29>  >>>> DEBYE
 <Oct06-2020> <19:23:29>  NORMAL TERMINATION
 <Oct06-2020> <19:23:29>  END
CUDA ERROR FOUND: CUDA driver version is insufficient for CUDA runtime version

 *******************************************************************************
 *                                                                             *
 *  --------------------------------                                           *
 *   Amsterdam Modeling Suite (AMS)              2019.305                      *
 *  --------------------------------                                           *
 *                                               r84706 2020-05-29             *
 *                                                                             *
 *                                                                             *
 *                            =====================                            *
 *                            |                   |                            *
 *                            |     D I R A C     |                            *
 *                            |                   |                            *
 *                            =====================                            *
 *                                                                             *
 *                                                                             *
 *   Online information and documentation:  https://www.scm.com/support/       *
 *   E-mail:  support@scm.com   info@scm.com                                   *
 *                                                                             *
 *   Scientific publications using AMS results must be properly referenced     *
 *   See the User Manuals (or the web site) for recommended citations          *
 *   The terms and conditions of the End User License Agreement apply to       *
 *   the use of AMS, https://www.scm.com/license-terms/                        *
 *                                                                             *
 **********************  x86_64_linux_intel / intelmpi  ************************
 
 Licensed to: Prof. Polimeno / Universit? degli Studi di Padova Dpt. Chemistry / TC Research Group / Padua / ITALY
 SCM User ID: u7630
  
 DIRAC 2019.305  RunTime: Oct06-2020 19:23:29  Nodes: 1  Procs: 1

 Temporary files are created in /tmp/kid_0.1118757311 (0x58465342)

1
 COPPER ATOM 2p CORE RELATIVISTIC, Point Nuc, A and c from li
 N J RN H ZN XION ANUC CLIGHT
 5000   10100.00000000197.36710137 29.00000000  0.00000000   62.929600  0.1370360E+03
  PH   PHI     EPS        DEL        DELRVR
  0.30  0.30     2500.00  0.00001000  0.00001000
 IDIRC  NC1  NDEBU NPRIN  IPUN IRCOR IWCOR
   1   300     0     0     0     0     4
   XALPHA      XLATTER      RNUC
  0.70000000  0.00000000  0.00000000 Point Charge
   XN   XL   XJ      XE          XZ      XDELL
  1.0  0.0  0.5    -750.000       2.000     0.00000
  2.0  0.0  0.5    -200.000       2.000     0.00000
  2.0  1.0  0.5    -175.000       2.000     0.00000
  2.0  1.0  1.5    -175.000       4.000     0.00000
  3.0  0.0  0.5     -75.000       2.000     0.00000
  3.0  1.0  0.5     -50.000       2.000     0.00000
  3.0  1.0  1.5     -50.000       4.000     0.00000
  3.0  2.0  1.5      -0.500       4.000     0.00000
  3.0  2.0  2.5      -0.500       6.000     0.00000
  4.0  0.0  0.5      -0.250       1.000     0.00000
 ICORP=  0  NPCL=  0  DEMP=0.00  PEPS=0.000000
 R(1)=  0.1000000E-08 D=  0.1005080E+01 RNUC=  0.0000000E+00
 converged at cycle  113  DENSITY AVERAGING    0.0403
  MAXIMUM ERROR IN R.V(R) IS   0.79603747E-05
 Q,EY,EV,EZ,ESUM,ETOT,RHO  0.290000E+02 -0.874537E+02 -0.263864E+04 -0.398879E+04 -0.955947E+03 -0.165289E+04  0.463751E-12


 DIRAC CALCULATION
1                    COPPER ATOM 2p CORE RELATIVISTIC, Point Nuc, A and c from libtc


 EXCHANGE COEFFICIENT=  0.7000000           TAIL CORRECTION=  0.           NUCLEAR RADIUS=  0.000E+00
0                       ORBITAL    N    L    J     ELECTRONS     EIGENVALUE                DELTA OF EIGENV.

                          1S1/2  1.0  0.0  0.5     2.000       -0.3248734E+03                 0.4661476E-05
                          2S1/2  2.0  0.0  0.5     2.000       -0.3899762E+02                 0.5944933E-05
                          2P1/2  2.0  1.0  0.5     2.000       -0.3421971E+02                 0.5963444E-05
                          2P3/2  2.0  1.0  1.5     4.000       -0.3346590E+02                 0.6020799E-05
                          3S1/2  3.0  0.0  0.5     2.000       -0.4171998E+01                 0.4429114E-05
                          3P1/2  3.0  1.0  0.5     2.000       -0.2687429E+01                 0.4314573E-05
                          3P3/2  3.0  1.0  1.5     4.000       -0.2591760E+01                 0.4269586E-05
                          3D3/2  3.0  2.0  1.5     4.000       -0.1726147E+00                 0.3649027E-05
                          3D5/2  3.0  2.0  2.5     6.000       -0.1625689E+00                 0.3618043E-05
                          4S1/2  4.0  0.0  0.5     1.000       -0.1503370E+00                 0.9568027E-06


                                        NUCLEAR CHARGE=   29.000000
                            INTEGRAL OF CHARGE DENSITY=   29.000000
                           SUM OF THE ORBITAL ENERGIES=   -955.9471
                                          TOTAL ENERGY=  -1652.8852
                                        KINETIC ENERGY=   1682.6940
                             NUCLEAR ATTRACTION ENERGY=  -3988.7905
                             ELECTRON REPULSION ENERGY=    718.8016
                                       EXCHANGE ENERGY=    -65.5903

 *******************************************************************************

                             D I R A C   E X I T
 NORMAL TERMINATION



 =================
 Timing Statistics
 =================
  
 Total Used :                     CPU=        0.78      System=        0.00     Elapsed=        0.85

 Calls  Section                     ( Mean, Percentage )
 ---------------------------------------------------------------------------------------------------
     2  ><      ................      0.00    0.00             0.00    0.08             0.00    0.00
     1  EXIT PROCEDURE .........      0.78  100.00             0.00   99.92             0.85  100.00


 Currently Open Files (EXIT00)
 ====================

 Unit    Access Format  Status   Type       Ident (file)
 -------------------------------------------------------
   3      SEQ    FORM   TRANSP  NORMAL      LOGFILE
                                          ( logfile )
 
Create Cu   file=TZP-Cu.2p
XC
  GGA OPBE
End
relativistic ZORA
Corepotentials t12.rel
End

 *******************************************************************************
 *                                                                             *
 *  --------------------------------                                           *
 *   Amsterdam Modeling Suite (AMS)              2019.305                      *
 *  --------------------------------                                           *
 *                                               r84706 2020-05-29             *
 *                                                                             *
 *                                                                             *
 *                              =================                              *
 *                              |               |                              *
 *                              |     A D F     |                              *
 *                              |               |                              *
 *                              =================                              *
 *                                                                             *
 *                                                                             *
 *   Online information and documentation:  https://www.scm.com/support/       *
 *   E-mail:  support@scm.com   info@scm.com                                   *
 *                                                                             *
 *   Scientific publications using AMS results must be properly referenced     *
 *   See the User Manuals (or the web site) for recommended citations          *
 *   The terms and conditions of the End User License Agreement apply to       *
 *   the use of AMS, https://www.scm.com/license-terms/                        *
 *                                                                             *
 **********************  x86_64_linux_intel / intelmpi  ************************
 
 Licensed to: Prof. Polimeno / Universit? degli Studi di Padova Dpt. Chemistry / TC Research Group / Padua / ITALY
 SCM User ID: u7630
  
 ADF 2019.305  RunTime: Oct06-2020 19:23:30  Nodes: 1  Procs: 1

 Temporary files are created in /tmp/kid_0.190762434 (0x58465342)

           0  CUDA devices found
 A CUDA error was found during GPU init, disabling GPU. mynoderank:           0
 Copper (TZP, 2p frozen)



 ===========================
 A T T A C H E D   F I L E S
 ===========================
  
 CREATE - Data File:    TZP-Cu.2p
                        Copper (TZP, 2p frozen)
 Core Potentials:
         file : t12.rel



 ===============================
 M O D E L   P A R A M E T E R S
 ===============================
  
 DENSITY FUNCTIONAL POTENTIAL (scf)
    LDA:                               VWN                                      
    Gradient Corrections:              OPTX PBEc                               == Not Default ==

 SPIN  (restricted / unrestr.)
    Molecule:                          Restricted                               

 OTHER ASPECTS
    Relativistic Corrections:          scalar (ZORA,MAPA)                      == Not Default ==

    Nuclear Charge Density Model:      Point Charge Nuclei                      
    Core Treatment:                    Frozen Orbital(s)                        

    Hyperfine or Zeeman Interaction:   ---                                      



 =====================================
 S Y M M E T R Y ,   E L E C T R O N S
 =====================================
  
 Symmetry: ATOM

 Irreducible Representations, including subspecies
 -------------------------------------------------
 S
 P:x  P:y  P:z
 D:z2  D:x2-y2  D:xy  D:xz  D:yz
 F:z3  F:z  F:xyz  F:z2x  F:z2y  F:x  F:y


 Configuration of Valence Electrons
 ==================================

          Occupation Numbers
          -------------------------------------------------
 S        2 1
 P        6
 D        10
 F        0
          -------------------------------------------------

 Total:   19

 Net Charge: 0 (Nuclei minus Electrons)

 Preset values for MO occupations will be applied through SCF cycle no. 1000000
 Thereafter, the program will assign electrons to MOs that are spatially
 similar to the occupied MOs in a "reference" cycle ("KeepOrbitals").
 The reference cycle is always the PREVIOUS cycle: it will evolve with
 the SCF procedure.



 ================================
 (Slater-type)  F U N C T I O N S  ***  (Basis and Fit)  ***
 ================================
  

 Atom Type    1  (Cu)
 ==============

 Valence Basis Sets:  15
 -----------------------
   1 S   22.150000
   2 S   10.350000
   2 P   12.250000
   3 S    4.150000
   3 S    6.600000
   3 P    6.950000
   3 P    4.550000
   3 P    3.050000
   3 D    1.280000
   3 D    3.100000
   3 D    6.900000
   4 S    0.850000
   4 S    1.400000
   4 S    2.450000
   4 P    1.370000

 Frozen Core Shells
 ------------------
    S:  2
    P:  1


 BAS: List of all Elementary Cartesian Basis Functions
 =====================================================

 The numbering in the list below (to the right of the function characteristics) is referred
 to in print-outs of MO eigenvectors and Mulliken populations in the BAS representation
 (as contrasted to the SFO representation).

 Notes:
 1. The functions are characterized by a polynomial prefactor (powers of x,y,z and r) and
    an exponential decay factor alpha.
 2. Since the basis sets are specific for an atom TYPE, the individual functions occur on
    all atoms of that type.
 3. The word 'Core' in the left margin signals that it is a Core Function (CF) : not a
    degree of freedom in the valence set, but only used to ensure orthogonalization of
    the other valence basis functions on the frozen Core Orbitals.


 (power of) X  Y  Z  R     Alpha  on Atom
            ==========     =====     ==========

 Cu                                   1
                                  ---------------------------------------------------------------------------
    Core    0  0  0  0    22.150      1
    Core    0  0  0  1    10.350      2
    Core    1  0  0  0    12.250      3
    Core    0  1  0  0    12.250      4
    Core    0  0  1  0    12.250      5
            0  0  0  2     4.150      6
            0  0  0  2     6.600      7
            1  0  0  1     6.950      8
            0  1  0  1     6.950      9
            0  0  1  1     6.950     10
            1  0  0  1     4.550     11
            0  1  0  1     4.550     12
            0  0  1  1     4.550     13
            1  0  0  1     3.050     14
            0  1  0  1     3.050     15
            0  0  1  1     3.050     16
            2  0  0  0     1.280     17
            1  1  0  0     1.280     18
            1  0  1  0     1.280     19
            0  2  0  0     1.280     20
            0  1  1  0     1.280     21
            0  0  2  0     1.280     22
            2  0  0  0     3.100     23
            1  1  0  0     3.100     24
            1  0  1  0     3.100     25
            0  2  0  0     3.100     26
            0  1  1  0     3.100     27
            0  0  2  0     3.100     28
            2  0  0  0     6.900     29
            1  1  0  0     6.900     30
            1  0  1  0     6.900     31
            0  2  0  0     6.900     32
            0  1  1  0     6.900     33
            0  0  2  0     6.900     34
            0  0  0  3     0.850     35
            0  0  0  3     1.400     36
            0  0  0  3     2.450     37
            1  0  0  2     1.370     38
            0  1  0  2     1.370     39
            0  0  1  2     1.370     40

 Total number of charge fitting functions (nprimf)       156
 Total number of Cartesian basis functions (naos)         40
 Total number of Cartesian core functions  (ncos)          5



 BAS: List of all Elementary Cartesian Basis Functions
 =====================================================

 The numbering in the list below (to the right of the function characteristics) is referred
 to in print-outs of MO eigenvectors and Mulliken populations in the BAS representation
 (as contrasted to the SFO representation).

 Notes:
 1. The functions are characterized by a polynomial prefactor (powers of x,y,z and r) and
    an exponential decay factor alpha.
 2. Since the basis sets are specific for an atom TYPE, the individual functions occur on
    all atoms of that type.
 3. The word 'Core' in the left margin signals that it is a Core Function (CF) : not a
    degree of freedom in the valence set, but only used to ensure orthogonalization of
    the other valence basis functions on the frozen Core Orbitals.


 (power of) X  Y  Z  R     Alpha  on Atom
            ==========     =====     ==========

 Cu                                   1
                                  ---------------------------------------------------------------------------
    Core    0  0  0  0    22.150      1
    Core    0  0  0  1    10.350      2
    Core    1  0  0  0    12.250      3
    Core    0  1  0  0    12.250      4
    Core    0  0  1  0    12.250      5
            0  0  0  2     4.150      6
            0  0  0  2     6.600      7
            1  0  0  1     6.950      8
            0  1  0  1     6.950      9
            0  0  1  1     6.950     10
            1  0  0  1     4.550     11
            0  1  0  1     4.550     12
            0  0  1  1     4.550     13
            1  0  0  1     3.050     14
            0  1  0  1     3.050     15
            0  0  1  1     3.050     16
            2  0  0  0     1.280     17
            1  1  0  0     1.280     18
            1  0  1  0     1.280     19
            0  2  0  0     1.280     20
            0  1  1  0     1.280     21
            0  0  2  0     1.280     22
            2  0  0  0     3.100     23
            1  1  0  0     3.100     24
            1  0  1  0     3.100     25
            0  2  0  0     3.100     26
            0  1  1  0     3.100     27
            0  0  2  0     3.100     28
            2  0  0  0     6.900     29
            1  1  0  0     6.900     30
            1  0  1  0     6.900     31
            0  2  0  0     6.900     32
            0  1  1  0     6.900     33
            0  0  2  0     6.900     34
            0  0  0  3     0.850     35
            0  0  0  3     1.400     36
            0  0  0  3     2.450     37
            1  0  0  2     1.370     38
            0  1  0  2     1.370     39
            0  0  1  2     1.370     40
1
 ***************************************************************************************************



                                              ***********************
                                              *  T E C H N I C A L  *
                                              ***********************
  



 =============================================================
 P A R A L L E L I Z A T I O N  and  V E C T O R I Z A T I O N
 =============================================================
  
 Nr of parallel processes:                                1
 Maximum vector length in NumInt loops:                 128



 =====================
 S C F   U P D A T E S
 =====================
  
 Max. nr. of cycles:                               300
 Convergence criterion:                              0.0000000100
   secondary criterion:                              0.0000000100

 Mix parameter (when DIIS does not apply):           0.2000000000
 Special mix parameter for the first cycle:          1.0000000000
 Mixed ADIIS+SDIIS will be used                  
    Max number of expansion vectors:                10
    Pure ADIIS when Max([F,P]) is above              0.1000000000
    Pure SDIIS when Max([F,P]) is below              0.0010000000
 Automatic ElectronSmearing (in case of problematic SCF convergence) disabled



 =================
 P R E C I S I O N  ***  (General: NumInt, NeglectFunctionTails, ...)  ***
 =================
  

 NumInt:           Target precision:                12.0000000000
 -------           Initial precision:               10.0000000000
                   Min. precision (optimization):   10.0000000000

 Neglect Functions:          Basis functions:        0.1000000000E-13
 ------------------          Fit functions:          0.1000000000E-13



 ===========================
 L I N E A R   S C A L I N G
 ===========================
  

 Cut-off radii density fit:                        0.1000000000E-97
 Overlap cut-off criterion AO matrix elements:     0.1000000000E-97
 Cut-offs for Coulomb potential and fitted density:0.1000000000E-97
 Cut-off criterion for Coulomb multipole terms:    0.1000000000E-97
 Progressive Convergence parameter:                 0.000000000    
1
 ***************************************************************************************************



                                            ***************************
                                            *  C O M P U T A T I O N  *
                                            ***************************
  

 Number of elements of the density matrix on this node (used, total):       820       820



 ===========================================
 Numerical Integration : Fuzzy Cells (Becke)
 ===========================================
  
 Becke grid quality: VERYGOOD       
  
 Lebedev angular grid order:             min:  13 max:  41
 Nr. of radial points:                   min:  98 max:  98

 Total nr. of points:         98
 Nr. of blocks:                1
 Block length:                98
 Nr. of dummy points:          0


 Test of Precision of the Numerical Integration Grid
 ===================================================

 Integral of the Total Core Density:                   9.99999998568373
 Relative Error:                                      -1.432E-09



 ========================
 Density Fitting (zlmFit)
 ========================
  
 ZlmFit Fit Quality: VERYGOOD       
  
 Max L-expansion:                        min:   0 max:   0
 Nr. of radial interpolation points:     min: 220 max: 220



 =====
 S C F  ***  ScaSCF  ***
 =====
  

 CYCLE    1
 SCF Error: norm([F,P])=      0.000000000000, max([F,P])=      0.000000000000
 orbitals (Q,E):
 ---------------
 S :1...5            ( 2.00   -25.4238)  ( 1.00   -13.2589)  ( 0.00    -8.0402)  ( 0.00    -4.9253)
                     ( 0.00    -2.8487)
 P :1...4            ( 6.00   -23.8462)  ( 0.00   -12.5202)  ( 0.00    -7.1917)  ( 0.00    -4.7621)
 D :1...3            (10.00   -21.7649)  ( 0.00   -11.6978)  ( 0.00    -5.9363)

 CYCLE    2
  SDIIS (wt  0.000):  1.0000 -0.0000
 A-DIIS (wt  1.000):  0.2451  0.7549
  DIIS coefficients:  0.2451  0.7549
 SCF Error: norm([F,P])=     27.424758109205, max([F,P])=      7.513029024031
 orbitals (Q,E):
 ---------------
 S :1...3            ( 2.00    -5.1700)  ( 1.00    -1.7789)  ( 0.00    -0.9903)
 P :1...2            ( 6.00    -3.7303)  ( 0.00    -1.4112)
 D :1...2            (10.00    -1.6285)  ( 0.00    -0.8410)

 CYCLE    3
  SDIIS (wt  0.000):  0.3145  0.6855
 A-DIIS (wt  1.000):  0.1958  0.8042
  DIIS coefficients:  0.1958  0.8042
 SCF Error: norm([F,P])=     13.893502488684, max([F,P])=      4.683455945430
 orbitals (Q,E):
 ---------------
 S :1...3            ( 2.00    -5.9728)  ( 1.00    -0.4012)  ( 0.00     0.0087)
 P :1...2            ( 6.00    -4.3526)  ( 0.00    -0.1248)
 D :1...2            (10.00    -1.7396)  ( 0.00     0.2468)

 CYCLE    4
  SDIIS (wt  0.000): -0.1428  0.3387  0.8041
 A-DIIS (wt  1.000):  0.0000  0.3693  0.6307
  DIIS coefficients:  0.0000  0.3693  0.6307
 SCF Error: norm([F,P])=     10.286169581455, max([F,P])=      2.688671781238
 orbitals (Q,E):
 ---------------
 S :1...3            ( 2.00    -4.0374)  ( 1.00    -0.1210)  ( 0.00     0.0655)
 P :1...2            ( 6.00    -2.4775)  ( 0.00     0.0511)
 D :1...2            (10.00    -0.0358)  ( 0.00     0.5120)

 CYCLE    5
  SDIIS (wt  0.000): -0.0259 -0.1493  0.1465  1.0286
 A-DIIS (wt  1.000):  0.0000  0.0000  0.1054  0.8946
  DIIS coefficients:  0.0000  0.0000  0.1054  0.8946
 SCF Error: norm([F,P])=      2.873169186549, max([F,P])=      0.954886403785
 orbitals (Q,E):
 ---------------
 S :1...3            ( 2.00    -4.7317)  ( 1.00    -0.2313)  ( 0.00     0.0260)
 P :1...2            ( 6.00    -3.1463)  ( 0.00    -0.0293)
 D :1...2            (10.00    -0.6043)  ( 0.00     0.3570)

 CYCLE    6
  SDIIS (wt  0.000):  0.0131 -0.0129 -0.1888  0.4750  0.7136
 A-DIIS (wt  1.000):  0.0000  0.0000  0.0000  0.6029  0.3971
  DIIS coefficients:  0.0000  0.0000  0.0000  0.6029  0.3971
 SCF Error: norm([F,P])=      3.832727660443, max([F,P])=      1.072045681708
 orbitals (Q,E):
 ---------------
 S :1...3            ( 2.00    -4.3093)  ( 1.00    -0.1648)  ( 0.00     0.0420)
 P :1...2            ( 6.00    -2.7384)  ( 0.00     0.0156)
 D :1...2            (10.00    -0.2468)  ( 0.00     0.4349)

 CYCLE    7
  SDIIS (wt  0.000): -0.0005 -0.0040  0.0573  0.0656 -0.3131  1.1947
 A-DIIS (wt  1.000):  0.0000  0.0000  0.0000  0.1158  0.0000  0.8842
  DIIS coefficients:  0.0000  0.0000  0.0000  0.1158  0.0000  0.8842
 SCF Error: norm([F,P])=      0.657496301696, max([F,P])=      0.220026219657
 orbitals (Q,E):
 ---------------
 S :1...3            ( 2.00    -4.1388)  ( 1.00    -0.1381)  ( 0.00     0.0498)
 P :1...2            ( 6.00    -2.5739)  ( 0.00     0.0362)
 D :1...2            (10.00    -0.1116)  ( 0.00     0.4778)

 CYCLE    8
  SDIIS (wt  0.000): -0.0000  0.0002  0.0019 -0.0615 -0.0364  0.6274  0.4684
 A-DIIS (wt  1.000):  0.0000  0.0000  0.0000  0.0000  0.0000  0.6244  0.3756
  DIIS coefficients:  0.0000  0.0000  0.0000  0.0000  0.0000  0.6244  0.3756
 SCF Error: norm([F,P])=      0.997800286486, max([F,P])=      0.343797385305
 orbitals (Q,E):
 ---------------
 S :1...3            ( 2.00    -4.2167)  ( 1.00    -0.1492)  ( 0.00     0.0457)
 P :1...2            ( 6.00    -2.6489)  ( 0.00     0.0275)
 D :1...2            (10.00    -0.1721)  ( 0.00     0.4578)

 CYCLE    9
  SDIIS (wt  0.520):  0.0000  0.0001 -0.0014 -0.0061  0.0154 -0.0097 -0.1081  1.1099
 A-DIIS (wt  0.480):  0.0000  0.0000  0.0000  0.0000  0.0000  0.0700  0.0000  0.9300
  DIIS coefficients:  0.0000  0.0001 -0.0007 -0.0032  0.0080  0.0285 -0.0562  1.0236
 SCF Error: norm([F,P])=      0.145684522714, max([F,P])=      0.048526459844
 orbitals (Q,E):
 ---------------
 S :1...3            ( 2.00    -4.2434)  ( 1.00    -0.1530)  ( 0.00     0.0443)
 P :1...2            ( 6.00    -2.6745)  ( 0.00     0.0247)
 D :1...2            (10.00    -0.1932)  ( 0.00     0.4515)

 CYCLE   10
  SDIIS (wt  0.558): -0.0000 -0.0000  0.0018 -0.0068 -0.0204  0.1202  0.1430  0.7624
 A-DIIS (wt  0.442):  0.0000  0.0000  0.0000  0.0000  0.0000  0.0000  0.0054  0.9946
  DIIS coefficients: -0.0000 -0.0000  0.0010 -0.0038 -0.0114  0.0671  0.0822  0.8650
 SCF Error: norm([F,P])=      0.135944407464, max([F,P])=      0.044769275091
 orbitals (Q,E):
 ---------------
 S :1...3            ( 2.00    -4.2131)  ( 1.00    -0.1490)  ( 0.00     0.0456)
 P :1...2            ( 6.00    -2.6454)  ( 0.00     0.0276)
 D :1...2            (10.00    -0.1694)  ( 0.00     0.4585)

 CYCLE   11
  SDIIS (wt  0.558):  0.0000  0.0001 -0.0027 -0.0053  0.0254 -0.0431 -0.1694  1.1949
 A-DIIS (wt  0.442):  0.0000  0.0000  0.0000  0.0000  0.0000  0.1228  0.0000  0.8772
  DIIS coefficients:  0.0000  0.0001 -0.0015 -0.0030  0.0142  0.0302 -0.0945  1.0544
 SCF Error: norm([F,P])=      0.188281108456, max([F,P])=      0.062739908554
 orbitals (Q,E):
 ---------------
 S :1...3            ( 2.00    -4.2413)  ( 1.00    -0.1526)  ( 0.00     0.0444)
 P :1...2            ( 6.00    -2.6725)  ( 0.00     0.0250)
 D :1...2            (10.00    -0.1914)  ( 0.00     0.4521)

 CYCLE   12
  SDIIS (wt  0.627): -0.0000  0.0013 -0.0070 -0.0179  0.1244  0.1361  0.7631
 A-DIIS (wt  0.373):  0.0000  0.0000  0.0000  0.0000  0.0000  0.0000  1.0000
  DIIS coefficients: -0.0000  0.0008 -0.0044 -0.0112  0.0780  0.0853  0.8514
 SCF Error: norm([F,P])=      0.115286058841, max([F,P])=      0.037912269233
 orbitals (Q,E):
 ---------------
 S :1...3            ( 2.00    -4.2175)  ( 1.00    -0.1496)  ( 0.00     0.0454)
 P :1...2            ( 6.00    -2.6496)  ( 0.00     0.0272)
 D :1...2            (10.00    -0.1729)  ( 0.00     0.4575)

 CYCLE   13
  SDIIS (wt  0.627): -0.0018  0.0022  0.0219 -0.0920 -0.1774  1.2472
 A-DIIS (wt  0.373):  0.0000  0.0000  0.0000  0.0629  0.0000  0.9371
  DIIS coefficients: -0.0011  0.0014  0.0137 -0.0343 -0.1113  1.1316
 SCF Error: norm([F,P])=      0.140633832703, max([F,P])=      0.046782184964
 orbitals (Q,E):
 ---------------
 S :1...3            ( 2.00    -4.2406)  ( 1.00    -0.1526)  ( 0.00     0.0444)
 P :1...2            ( 6.00    -2.6718)  ( 0.00     0.0250)
 D :1...2            (10.00    -0.1909)  ( 0.00     0.4522)

 CYCLE   14
  SDIIS (wt  0.655): -0.0013 -0.0001  0.0095 -0.0118  0.5085  0.4953
 A-DIIS (wt  0.345):  0.0000  0.0000  0.0000  0.0000  0.3974  0.6026
  DIIS coefficients: -0.0009 -0.0001  0.0062 -0.0077  0.4701  0.5323
 SCF Error: norm([F,P])=      0.106754217242, max([F,P])=      0.035175853581
 orbitals (Q,E):
 ---------------
 S :1...3            ( 2.00    -4.2300)  ( 1.00    -0.1512)  ( 0.00     0.0449)
 P :1...2            ( 6.00    -2.6616)  ( 0.00     0.0260)
 D :1...2            (10.00    -0.1826)  ( 0.00     0.4546)

 CYCLE   15
  SDIIS (wt  0.988): -0.0000 -0.0021 -0.0013  0.0509  0.0988  0.8537
 A-DIIS (wt  0.012):  0.0000  0.0000  0.0000  0.0000  0.0000  1.0000
  DIIS coefficients: -0.0000 -0.0021 -0.0013  0.0503  0.0976  0.8555
 SCF Error: norm([F,P])=      0.006804295161, max([F,P])=      0.002228386076
 orbitals (Q,E):
 ---------------
 S :1...3            ( 2.00    -4.2306)  ( 1.00    -0.1513)  ( 0.00     0.0449)
 P :1...2            ( 6.00    -2.6622)  ( 0.00     0.0259)
 D :1...2            (10.00    -0.1831)  ( 0.00     0.4544)

 CYCLE   16
  SDIIS (wt  1.000):  0.0000 -0.0001  0.0023  0.9978
  DIIS coefficients:  0.0000 -0.0001  0.0023  0.9978
 SCF Error: norm([F,P])=      0.000264573636, max([F,P])=      0.000087399467
 orbitals (Q,E):
 ---------------
 S :1...3            ( 2.00    -4.2306)  ( 1.00    -0.1513)  ( 0.00     0.0449)
 P :1...2            ( 6.00    -2.6622)  ( 0.00     0.0259)
 D :1...2            (10.00    -0.1831)  ( 0.00     0.4544)

 CYCLE   17
  SDIIS (wt  1.000):  0.0002 -0.0010  0.0002 -0.0019 -0.0001  0.0031 -0.0074  0.0228  0.9841
  DIIS coefficients:  0.0002 -0.0010  0.0002 -0.0019 -0.0001  0.0031 -0.0074  0.0228  0.9841
 SCF Error: norm([F,P])=      0.000001123958, max([F,P])=      0.000000440980
 orbitals (Q,E):
 ---------------
 S :1...3            ( 2.00    -4.2306)  ( 1.00    -0.1513)  ( 0.00     0.0449)
 P :1...2            ( 6.00    -2.6622)  ( 0.00     0.0259)
 D :1...2            (10.00    -0.1831)  ( 0.00     0.4544)

 CYCLE   18
  SDIIS (wt  1.000):  0.0000  0.0002  0.0053  0.9945
  DIIS coefficients:  0.0000  0.0002  0.0053  0.9945
 SCF Error: norm([F,P])=      0.000000004509, max([F,P])=      0.000000001818
 orbitals (Q,E):
 ---------------
 S :1...3            ( 2.00    -4.2306)  ( 1.00    -0.1513)  ( 0.00     0.0449)
 P :1...2            ( 6.00    -2.6622)  ( 0.00     0.0259)
 D :1...2            (10.00    -0.1831)  ( 0.00     0.4544)

 SCF CONVERGED

 CYCLE   19
1
 ***************************************************************************************************



                                                *******************
                                                *  R E S U L T S  *
                                                *******************
  
 *** Using FIT density in Focky
  SDIIS (wt  1.000):  0.0000 -0.0005 -0.0445  1.0450
  DIIS coefficients:  0.0000 -0.0005 -0.0445  1.0450
 SCF Error: norm([F,P])=      0.000000000123, max([F,P])=      0.000000000036

 Scaled ZORA Orbital Energies, per Irrep and Spin:
 =================================================
                        Occup              E (au)              E (eV)       Diff (eV) with prev. cycle
                        -----      --------------------        ------       --------------------------
 S
               1        2.000     -0.42305949180719E+01      -115.120               1.05E-09
               2        1.000     -0.15127366634064E+00        -4.116               8.84E-10
               3        0.000      0.44855760325117E-01         1.221
               4        0.000      0.63894042572177E+00        17.386
               5        0.000      0.61030165491240E+01       166.072
 P
               1        6.000     -0.26621993702655E+01       -72.442               1.10E-09
               2        0.000      0.25940978503809E-01         0.706
               3        0.000      0.13994733752781E+01        38.082
               4        0.000      0.10960984065297E+02       298.264
 D
               1       10.000     -0.18307983939272E+00        -4.982               1.14E-09
               2        0.000      0.45444099089056E+00        12.366
               3        0.000      0.46014411151504E+01       125.212


 Partially Occupied:
               2 S                -0.15127366634064E+00
  
 HOMO :        1 D                -0.18307983939272E+00
 LUMO :        2 P                 0.25940978503809E-01
  


 Orbital Energies, all Irreps
 ========================================

 Irrep        no.  (spin)   Occup              E (au)                E (eV)
 ---------------------------------------------------------------------------
 S             1             2.00       -0.42305949180719E+01      -115.1203
 P             1             6.00       -0.26621993702655E+01       -72.4421
 D             1            10.00       -0.18307983939272E+00        -4.9819
 S             2             1.00       -0.15127366634064E+00        -4.1164
 P             2             0.00        0.25940978503809E-01         0.7059
 S             3             0.00        0.44855760325117E-01         1.2206
 D             2             0.00        0.45444099089056E+00        12.3660
 S             4             0.00        0.63894042572177E+00        17.3865
 P             3             0.00        0.13994733752781E+01        38.0816
 D             3             0.00        0.46014411151504E+01       125.2116
 S             5             0.00        0.61030165491240E+01       166.0715
 P             4             0.00        0.10960984065297E+02       298.2636


 Scaled ZORA Orbital Energies of the Core Orbitals:
 ==================================================

 (Note that the atoms are grouped by atomtype, see the labels, and may hence NOT be in input order)

 AtomType  Orbital  Atom                   E (au)                        E (eV)
 --------  -------  ----           --------------------        ----------------
 Cu          1S        1          -0.32513206127424E+03               -8847.294
             2S        1          -0.39091454128821E+02               -1063.733
             2P        1          -0.33773139498094E+02                -919.014



 =======================================
 M U L L I K E N   P O P U L A T I O N S
 =======================================
  
 The survey below gives for each atom:
 a) the total charge (Z minus electrons)
 b) the net spin polarization (nr of electrons spin-A minus spin-B)
 c) for each spin the atomic electron valence density (integrated) per L-value.

 Atom              Charge    Spin density          S         P         D         F
 ----              ------    ------------       ------    ------    ------    ------
 1 Cu              0.0000                       3.0000    6.0000   10.0000    0.0000

 Populations of individual BAS functions
 ----------------------------------------
 1 Cu          -0.0166 -0.0753  0.0214  0.0214  0.0214  0.8836  1.2061  0.5126  0.5126  0.5126
                1.2087  1.2087  1.2087  0.2566  0.2566  0.2566  0.1684  0.2527  0.2527  0.1684
                0.2527  0.1684  0.7313  1.0969  1.0969  0.7313  1.0969  0.7313  0.4336  0.6504
                0.6504  0.4336  0.6504  0.4336  0.1585  0.5397  0.3039  0.0006  0.0006  0.0006

 Gross Charges per Atom (Z minus electrons)
 ==========================================
             0.0000
 Net Total:  0.00000000



 =======================================================================
 Electrostatic potential at the Nuclei due to electrons and other nuclei
 =======================================================================
  
         Atom                  Potential
         ----                  ---------
     1)   Cu                137.38170408
 
 
 ========================
 No memory problems found
 ========================
 
 Maximum number of active allocate calls:         389
 
 *******************************************************************************

                             A D F   E X I T
 NORMAL TERMINATION



 =================
 Timing Statistics
 =================
  
 Total Used :                     CPU=        1.05      System=        0.04     Elapsed=        1.23

 Calls  Section                     ( Mean, Percentage )
 ---------------------------------------------------------------------------------------------------
     3  ><      ................      0.00    0.25             0.00    4.64             0.00    0.75
     1  INIT    ................      0.10    9.43             0.00   12.05             0.11    9.11
     1  GEOMET  ................      0.02    1.95             0.00   10.38             0.03    2.24
     1  INPUTA  ................      0.00    0.38             0.00    0.00             0.00    0.33
     1  MAINSY  ................      0.02    1.47             0.00    2.52             0.05    3.96
     1  SYMFIT  ................      0.00    0.01             0.00    5.00             0.00    0.17
     1  CORORT  ................      0.00    0.10             0.00    0.39             0.00    0.31
     1  SYMORB  ................      0.00    0.15             0.00    0.00             0.00    0.13
     1  CLSMAT  ................      0.01    0.56             0.00    2.20             0.01    0.76
     1  ORTHON  ................      0.01    0.50             0.00    2.27             0.01    0.70
     1  GENPT   ................      0.02    1.98             0.00    0.00             0.03    2.11
     1  PTBAS   ................      0.00    0.38             0.00    4.75             0.01    0.67
    19  FOCKY   ................      0.04   71.79             0.00   35.64             0.04   63.02
    19  FOCKTR  ................      0.00    1.18             0.00    9.13             0.00    1.17
    19  SDIIS   ................      0.00    4.62             0.00    3.42             0.01    8.46
     1  COREPS  ................      0.03    2.99             0.00    7.40             0.03    2.77
     1  POPAN   ................      0.01    0.48             0.00    0.21             0.01    0.66
     1  DEBYE   ................      0.00    0.18             0.00    0.00             0.00    0.32
     1  EXIT PROCEDURE .........      0.02    1.61             0.00    0.00             0.03    2.35


 Currently Open Files (EXIT00)
 ====================

 Unit    Access Format  Status   Type       Ident (file)
 -------------------------------------------------------
   3      SEQ    FORM   TRANSP  NORMAL      LOGFILE
                                          ( logfile )

 ***************************************************************************************************
 (LOGFILE)
 <Oct06-2020> <19:23:28>  DIRAC 2019.305  RunTime: Oct06-2020 19:23:28  Nodes: 1  Procs: 1
 <Oct06-2020> <19:23:28>  NORMAL TERMINATION
 <Oct06-2020> <19:23:28>  END
 <Oct06-2020> <19:23:29>  ADF 2019.305  RunTime: Oct06-2020 19:23:29  Nodes: 1  Procs: 1
 <Oct06-2020> <19:23:29>  Hydrogen (TZP)
 <Oct06-2020> <19:23:29>  RunType   : CREATE
 <Oct06-2020> <19:23:29>  Net Charge: 0 (Nuclei minus Electrons)
 <Oct06-2020> <19:23:29>  Symmetry  : ATOM
  Coordinates
    Atom         X           Y           Z   (Angstrom)
    1.H         0.000000    0.000000    0.000000
 <Oct06-2020> <19:23:29>  >>>> CORORT
 <Oct06-2020> <19:23:29>  >>>> CLSMAT
 <Oct06-2020> <19:23:29>  >>>> ORTHON
 <Oct06-2020> <19:23:29>  >>>> GENPT
 <Oct06-2020> <19:23:29>  Block Length=  64
 <Oct06-2020> <19:23:29>  >>>> PTBAS
 <Oct06-2020> <19:23:29>  >>>> CYCLE
 <Oct06-2020> <19:23:29>              |Error|         MaxErr       Wt(A-DIIS)
 <Oct06-2020> <19:23:29>      1      0.00000000      0.00000000
 <Oct06-2020> <19:23:29>      2      0.02818918      0.02713199
 <Oct06-2020> <19:23:29>      3      0.00791993      0.00789906    100.0
 <Oct06-2020> <19:23:29>      4      0.00177274      0.00176865      0.8
 <Oct06-2020> <19:23:29>      5      0.00004462      0.00004110      0.0
 <Oct06-2020> <19:23:29>      6      0.00000361      0.00000323      0.0
 <Oct06-2020> <19:23:29>      7      0.00000007      0.00000006      0.0
 <Oct06-2020> <19:23:29>      8      0.00000000      0.00000000      0.0
 <Oct06-2020> <19:23:29>  SCF converged
 <Oct06-2020> <19:23:29>      9      0.00000000      0.00000000      0.0
 <Oct06-2020> <19:23:29>  >>>> POPAN
 <Oct06-2020> <19:23:29>  >>>> DEBYE
 <Oct06-2020> <19:23:29>  NORMAL TERMINATION
 <Oct06-2020> <19:23:29>  END
 <Oct06-2020> <19:23:29>  DIRAC 2019.305  RunTime: Oct06-2020 19:23:29  Nodes: 1  Procs: 1
 <Oct06-2020> <19:23:30>  NORMAL TERMINATION
 <Oct06-2020> <19:23:30>  END
 <Oct06-2020> <19:23:30>  ADF 2019.305  RunTime: Oct06-2020 19:23:30  Nodes: 1  Procs: 1
 <Oct06-2020> <19:23:30>  Copper (TZP, 2p frozen)
 <Oct06-2020> <19:23:30>  RunType   : CREATE
 <Oct06-2020> <19:23:30>  Net Charge: 0 (Nuclei minus Electrons)
 <Oct06-2020> <19:23:30>  Symmetry  : ATOM
  Coordinates
    Atom         X           Y           Z   (Angstrom)
    1.Cu        0.000000    0.000000    0.000000
 <Oct06-2020> <19:23:31>  >>>> CORORT
 <Oct06-2020> <19:23:31>  >>>> CLSMAT
 <Oct06-2020> <19:23:31>  >>>> ORTHON
 <Oct06-2020> <19:23:31>  >>>> GENPT
 <Oct06-2020> <19:23:31>  Block Length=  98
 <Oct06-2020> <19:23:31>  >>>> PTBAS
 <Oct06-2020> <19:23:31>  >>>> CYCLE
 <Oct06-2020> <19:23:31>              |Error|         MaxErr       Wt(A-DIIS)
 <Oct06-2020> <19:23:31>      1      0.00000000      0.00000000
 <Oct06-2020> <19:23:31>      2     27.42475811      7.51302902    100.0
 <Oct06-2020> <19:23:31>      3     13.89350249      4.68345595    100.0
 <Oct06-2020> <19:23:31>      4     10.28616958      2.68867178    100.0
 <Oct06-2020> <19:23:31>      5      2.87316919      0.95488640    100.0
 <Oct06-2020> <19:23:31>      6      3.83272766      1.07204568    100.0
 <Oct06-2020> <19:23:31>      7      0.65749630      0.22002622    100.0
 <Oct06-2020> <19:23:31>      8      0.99780029      0.34379739    100.0
 <Oct06-2020> <19:23:31>      9      0.14568452      0.04852646     48.0
 <Oct06-2020> <19:23:31>     10      0.13594441      0.04476928     44.2
 <Oct06-2020> <19:23:31>     11      0.18828111      0.06273991     44.2
 <Oct06-2020> <19:23:31>     12      0.11528606      0.03791227     37.3
 <Oct06-2020> <19:23:31>     13      0.14063383      0.04678218     37.3
 <Oct06-2020> <19:23:31>     14      0.10675422      0.03517585     34.5
 <Oct06-2020> <19:23:31>     15      0.00680430      0.00222839      1.2
 <Oct06-2020> <19:23:31>     16      0.00026457      0.00008740      0.0
 <Oct06-2020> <19:23:31>     17      0.00000112      0.00000044      0.0
 <Oct06-2020> <19:23:31>     18      0.00000000      0.00000000      0.0
 <Oct06-2020> <19:23:31>  SCF converged
 <Oct06-2020> <19:23:31>     19      0.00000000      0.00000000      0.0
 <Oct06-2020> <19:23:32>  >>>> POPAN
 <Oct06-2020> <19:23:32>  >>>> DEBYE
 <Oct06-2020> <19:23:32>  NORMAL TERMINATION
 <Oct06-2020> <19:23:32>  END
CUDA ERROR FOUND: CUDA driver version is insufficient for CUDA runtime version

 *******************************************************************************
 *                                                                             *
 *  --------------------------------                                           *
 *   Amsterdam Modeling Suite (AMS)              2019.305                      *
 *  --------------------------------                                           *
 *                                               r84706 2020-05-29             *
 *                                                                             *
 *                                                                             *
 *                            =====================                            *
 *                            |                   |                            *
 *                            |     D I R A C     |                            *
 *                            |                   |                            *
 *                            =====================                            *
 *                                                                             *
 *                                                                             *
 *   Online information and documentation:  https://www.scm.com/support/       *
 *   E-mail:  support@scm.com   info@scm.com                                   *
 *                                                                             *
 *   Scientific publications using AMS results must be properly referenced     *
 *   See the User Manuals (or the web site) for recommended citations          *
 *   The terms and conditions of the End User License Agreement apply to       *
 *   the use of AMS, https://www.scm.com/license-terms/                        *
 *                                                                             *
 **********************  x86_64_linux_intel / intelmpi  ************************
 
 Licensed to: Prof. Polimeno / Universit? degli Studi di Padova Dpt. Chemistry / TC Research Group / Padua / ITALY
 SCM User ID: u7630
  
 DIRAC 2019.305  RunTime: Oct06-2020 19:23:32  Nodes: 1  Procs: 1

 Temporary files are created in /tmp/kid_0.1751906154 (0x58465342)

1
 NITROGEN ATOM 1s CORE RELATIVISTIC, Point Nuc, A and c from 
 N J RN H ZN XION ANUC CLIGHT
 5000    4100.00000000197.36710137  7.00000000  0.00000000   14.003074  0.1370360E+03
  PH   PHI     EPS        DEL        DELRVR
  0.30  0.30     2500.00  0.00001000  0.00001000
 IDIRC  NC1  NDEBU NPRIN  IPUN IRCOR IWCOR
   1   300     0     0     0     0     1
   XALPHA      XLATTER      RNUC
  0.70000000  0.00000000  0.00000000 Point Charge
   XN   XL   XJ      XE          XZ      XDELL
  1.0  0.0  0.5      -5.000       2.000     0.00000
  2.0  0.0  0.5      -1.000       2.000     0.00000
  2.0  1.0  0.5      -1.000       2.000     0.00000
  2.0  1.0  1.5      -1.000       1.000     0.00000
 ICORP=  0  NPCL=  0  DEMP=0.00  PEPS=0.000000
 R(1)=  0.1000000E-08 D=  0.1005080E+01 RNUC=  0.0000000E+00
 converged at cycle   25  DENSITY AVERAGING    0.3000
  MAXIMUM ERROR IN R.V(R) IS   0.97905511E-05
 Q,EY,EV,EZ,ESUM,ETOT,RHO  0.700000E+01 -0.796419E+01 -0.840156E+02 -0.127663E+03 -0.300692E+02 -0.538837E+02  0.270066E-14


 DIRAC CALCULATION
1                    NITROGEN ATOM 1s CORE RELATIVISTIC, Point Nuc, A and c from libtc


 EXCHANGE COEFFICIENT=  0.7000000           TAIL CORRECTION=  0.           NUCLEAR RADIUS=  0.000E+00
0                       ORBITAL    N    L    J     ELECTRONS     EIGENVALUE                DELTA OF EIGENV.

                          1S1/2  1.0  0.0  0.5     2.000       -0.1403720E+02                 0.4993583E-04
                          2S1/2  2.0  0.0  0.5     2.000       -0.6456810E+00                 0.6544571E-05
                          2P1/2  2.0  1.0  0.5     2.000       -0.2347008E+00                 0.5687228E-05
                          2P3/2  2.0  1.0  1.5     1.000       -0.2339893E+00                 0.5679256E-05


                                        NUCLEAR CHARGE=    7.000000
                            INTEGRAL OF CHARGE DENSITY=    7.000000
                           SUM OF THE ORBITAL ENERGIES=    -30.0692
                                          TOTAL ENERGY=    -53.8837
                                        KINETIC ENERGY=     53.9465
                             NUCLEAR ATTRACTION ENERGY=   -127.6627
                             ELECTRON REPULSION ENERGY=     25.8056
                                       EXCHANGE ENERGY=     -5.9731

 *******************************************************************************

                             D I R A C   E X I T
 NORMAL TERMINATION



 =================
 Timing Statistics
 =================
  
 Total Used :                     CPU=        0.16      System=        0.01     Elapsed=        0.28

 Calls  Section                     ( Mean, Percentage )
 ---------------------------------------------------------------------------------------------------
     2  ><      ................      0.00    0.00             0.00    0.03             0.00    0.00
     1  EXIT PROCEDURE .........      0.16  100.00             0.01   99.97             0.28  100.00


 Currently Open Files (EXIT00)
 ====================

 Unit    Access Format  Status   Type       Ident (file)
 -------------------------------------------------------
   3      SEQ    FORM   TRANSP  NORMAL      LOGFILE
                                          ( logfile )
 
Create N   file=TZP-N.1s
XC
  GGA OPBE
End
relativistic ZORA
Corepotentials t12.rel
End

 *******************************************************************************
 *                                                                             *
 *  --------------------------------                                           *
 *   Amsterdam Modeling Suite (AMS)              2019.305                      *
 *  --------------------------------                                           *
 *                                               r84706 2020-05-29             *
 *                                                                             *
 *                                                                             *
 *                              =================                              *
 *                              |               |                              *
 *                              |     A D F     |                              *
 *                              |               |                              *
 *                              =================                              *
 *                                                                             *
 *                                                                             *
 *   Online information and documentation:  https://www.scm.com/support/       *
 *   E-mail:  support@scm.com   info@scm.com                                   *
 *                                                                             *
 *   Scientific publications using AMS results must be properly referenced     *
 *   See the User Manuals (or the web site) for recommended citations          *
 *   The terms and conditions of the End User License Agreement apply to       *
 *   the use of AMS, https://www.scm.com/license-terms/                        *
 *                                                                             *
 **********************  x86_64_linux_intel / intelmpi  ************************
 
 Licensed to: Prof. Polimeno / Universit? degli Studi di Padova Dpt. Chemistry / TC Research Group / Padua / ITALY
 SCM User ID: u7630
  
 ADF 2019.305  RunTime: Oct06-2020 19:23:32  Nodes: 1  Procs: 1

 Temporary files are created in /tmp/kid_0.108947132 (0x58465342)

           0  CUDA devices found
 A CUDA error was found during GPU init, disabling GPU. mynoderank:           0
 Nitrogen (TZP, 1s frozen)



 ===========================
 A T T A C H E D   F I L E S
 ===========================
  
 CREATE - Data File:    TZP-N.1s
                        Nitrogen (TZP, 1s frozen)
 Core Potentials:
         file : t12.rel



 ===============================
 M O D E L   P A R A M E T E R S
 ===============================
  
 DENSITY FUNCTIONAL POTENTIAL (scf)
    LDA:                               VWN                                      
    Gradient Corrections:              OPTX PBEc                               == Not Default ==

 SPIN  (restricted / unrestr.)
    Molecule:                          Restricted                               

 OTHER ASPECTS
    Relativistic Corrections:          scalar (ZORA,MAPA)                      == Not Default ==

    Nuclear Charge Density Model:      Point Charge Nuclei                      
    Core Treatment:                    Frozen Orbital(s)                        

    Hyperfine or Zeeman Interaction:   ---                                      



 =====================================
 S Y M M E T R Y ,   E L E C T R O N S
 =====================================
  
 Symmetry: ATOM

 Irreducible Representations, including subspecies
 -------------------------------------------------
 S
 P:x  P:y  P:z
 D:z2  D:x2-y2  D:xy  D:xz  D:yz
 F:z3  F:z  F:xyz  F:z2x  F:z2y  F:x  F:y


 Configuration of Valence Electrons
 ==================================

          Occupation Numbers
          -------------------------------------------------
 S        2
 P        3
 D        0
 F        0
          -------------------------------------------------

 Total:   5

 Net Charge: 0 (Nuclei minus Electrons)

 Preset values for MO occupations will be applied through SCF cycle no. 1000000
 Thereafter, the program will assign electrons to MOs that are spatially
 similar to the occupied MOs in a "reference" cycle ("KeepOrbitals").
 The reference cycle is always the PREVIOUS cycle: it will evolve with
 the SCF procedure.



 ================================
 (Slater-type)  F U N C T I O N S  ***  (Basis and Fit)  ***
 ================================
  

 Atom Type    1  (N)
 ==============

 Valence Basis Sets:   8
 -----------------------
   1 S    6.380000
   2 S    1.500000
   2 S    2.500000
   2 S    5.150000
   2 P    1.000000
   2 P    1.880000
   2 P    3.680000
   3 D    2.200000

 Frozen Core Shells
 ------------------
    S:  1


 BAS: List of all Elementary Cartesian Basis Functions
 =====================================================

 The numbering in the list below (to the right of the function characteristics) is referred
 to in print-outs of MO eigenvectors and Mulliken populations in the BAS representation
 (as contrasted to the SFO representation).

 Notes:
 1. The functions are characterized by a polynomial prefactor (powers of x,y,z and r) and
    an exponential decay factor alpha.
 2. Since the basis sets are specific for an atom TYPE, the individual functions occur on
    all atoms of that type.
 3. The word 'Core' in the left margin signals that it is a Core Function (CF) : not a
    degree of freedom in the valence set, but only used to ensure orthogonalization of
    the other valence basis functions on the frozen Core Orbitals.


 (power of) X  Y  Z  R     Alpha  on Atom
            ==========     =====     ==========

 N                                    1
[...]
   39.H        -0.494150    1.181362   10.070501
   40.H        -1.312027   -0.923830    7.398391
   41.H        -0.499319   -1.686014    6.029597
   42.H         3.896146    3.588294    6.733946
   43.H         3.133408   -1.464800    3.433641
   44.H        -0.933571   -2.666360    7.452045
   45.H         0.663170    1.805512   11.265934
 <Oct06-2020> <20:17:19>  >>>> CORORT
 <Oct06-2020> <20:17:19>  >>>> CLSMAT
 <Oct06-2020> <20:17:19>  >>>> ORTHON
 <Oct06-2020> <20:17:19>  >>>> GENPT
 <Oct06-2020> <20:17:19>  Block Length= 128
 <Oct06-2020> <20:17:20>  >>>> PTBAS
 <Oct06-2020> <20:17:28>  >>>> CYCLE
 <Oct06-2020> <20:17:36>              |Error|         MaxErr       Wt(A-DIIS)
 <Oct06-2020> <20:17:36>      1      0.00110132      0.00023379
 <Oct06-2020> <20:17:42>      2      0.00022222      0.00004253    100.0
 <Oct06-2020> <20:17:48>      3      0.00009190      0.00001186    100.0
 <Oct06-2020> <20:17:54>      4      0.00010790      0.00001028      0.0
 <Oct06-2020> <20:18:00>      5      0.00004067      0.00000654      0.0
 <Oct06-2020> <20:18:06>      6      0.00000892      0.00000098      0.0
 <Oct06-2020> <20:18:07>  SCF converged
 <Oct06-2020> <20:18:12>      7      0.00000312      0.00000034      0.0
 <Oct06-2020> <20:18:13>  >>>> TOTEN
 <Oct06-2020> <20:18:25>  >>>> POPAN
 <Oct06-2020> <20:18:25>  >>>> DEBYE
 <Oct06-2020> <20:18:25>  >>>> ENGRAD
 <Oct06-2020> <20:18:48>  current energy                               -8.78712576 Hartree
 <Oct06-2020> <20:18:48>  energy change                      -0.00000013     0.00001000    T
 <Oct06-2020> <20:18:48>  constrained gradient max            0.00019114     0.00010000    F
 <Oct06-2020> <20:18:48>  constrained gradient rms            0.00002540     0.00006667    T
 <Oct06-2020> <20:18:48>  gradient max                        0.00019114
 <Oct06-2020> <20:18:48>  gradient rms                        0.00002540
 <Oct06-2020> <20:18:48>  cart. step max                      0.00114962     0.01000000    T
 <Oct06-2020> <20:18:48>  cart. step rms                      0.00027494     0.00666667    T
  Coordinates in Geometry Cycle 31
    Atom         X           Y           Z   (Angstrom)
    1.Cu        1.569526    0.398101    7.140157
    2.N         3.194480    1.590972    7.052219
    3.N         1.519672    1.009736    9.468919
    4.N         0.728282   -1.343363    7.719424
    5.N         2.623548   -0.916364    5.442153
    6.C         2.962077    3.006523    6.714687
    7.C         3.759767    1.459666    8.415831
    8.C         2.779731    1.746914    9.551873
    9.C         0.456400    1.708754   10.185409
   10.C         1.626593   -0.390337    9.881173
   11.C         0.600233   -1.290816    9.198062
   12.C        -0.574457   -1.680703    7.118716
   13.C         1.759745   -2.334157    7.331348
   14.C         2.215905   -2.252422    5.875689
   15.C         2.485062   -0.770428    3.995583
   16.C         3.956532   -0.527448    5.905469
   17.C         4.114874    0.983168    6.057676
   18.H         3.014010   -3.004021    5.738811
   19.H         1.399047   -2.570463    5.220668
   20.H         0.665408   -2.302127    9.629135
   21.H        -0.406803   -0.927887    9.421306
   22.H         1.393267   -3.358843    7.512615
   23.H         2.614818   -2.192204    7.999733
   24.H         1.503649   -0.506308   10.972970
   25.H         2.637572   -0.745848    9.656297
   26.H         2.531494    2.812776    9.556458
   27.H         3.315685    1.564544   10.500714
   28.H         4.151496    0.441799    8.508618
   29.H         4.623608    2.135030    8.537684
   30.H         5.162626    1.211726    6.308115
   31.H         3.917391    1.467848    5.097509
   32.H         4.150225   -1.017539    6.865317
   33.H         4.747887   -0.882910    5.221412
   34.H         2.733655    0.248664    3.687788
   35.H         1.447031   -0.952901    3.701489
   36.H         2.257672    3.453131    7.418750
   37.H         2.524709    3.075825    5.715295
   38.H         0.323356    2.711255    9.767472
   39.H        -0.494320    1.181606   10.069438
   40.H        -1.312045   -0.924068    7.398517
   41.H        -0.499306   -1.686344    6.029776
   42.H         3.896615    3.588218    6.734037
   43.H         3.133964   -1.464006    3.433577
   44.H        -0.933448   -2.666554    7.452329
   45.H         0.662671    1.805515   11.265329
 <Oct06-2020> <20:18:49>  >>>> CORORT
 <Oct06-2020> <20:18:49>  >>>> CLSMAT
 <Oct06-2020> <20:18:49>  >>>> ORTHON
 <Oct06-2020> <20:18:49>  >>>> GENPT
 <Oct06-2020> <20:18:49>  Block Length= 128
 <Oct06-2020> <20:18:50>  >>>> PTBAS
 <Oct06-2020> <20:18:57>  >>>> CYCLE
 <Oct06-2020> <20:19:05>              |Error|         MaxErr       Wt(A-DIIS)
 <Oct06-2020> <20:19:05>      1      0.00127859      0.00032956
 <Oct06-2020> <20:19:11>      2      0.00022156      0.00003633    100.0
 <Oct06-2020> <20:19:17>      3      0.00061944      0.00015795    100.0
 <Oct06-2020> <20:19:23>      4      0.00014903      0.00003154      0.0
 <Oct06-2020> <20:19:29>      5      0.00003575      0.00000513      0.0
 <Oct06-2020> <20:19:35>      6      0.00000768      0.00000100      0.0
 <Oct06-2020> <20:19:37>  SCF converged
 <Oct06-2020> <20:19:41>      7      0.00000346      0.00000042      0.0
 <Oct06-2020> <20:19:43>  >>>> TOTEN
 <Oct06-2020> <20:19:55>  >>>> POPAN
 <Oct06-2020> <20:19:55>  >>>> DEBYE
 <Oct06-2020> <20:19:55>  >>>> ENGRAD
 <Oct06-2020> <20:20:18>  current energy                               -8.78712605 Hartree
 <Oct06-2020> <20:20:18>  energy change                      -0.00000029     0.00001000    T
 <Oct06-2020> <20:20:18>  constrained gradient max            0.00016530     0.00010000    F
 <Oct06-2020> <20:20:18>  constrained gradient rms            0.00002380     0.00006667    T
 <Oct06-2020> <20:20:18>  gradient max                        0.00016530
 <Oct06-2020> <20:20:18>  gradient rms                        0.00002380
 <Oct06-2020> <20:20:18>  cart. step max                      0.00119023     0.01000000    T
 <Oct06-2020> <20:20:18>  cart. step rms                      0.00035027     0.00666667    T
  Coordinates in Geometry Cycle 32
    Atom         X           Y           Z   (Angstrom)
    1.Cu        1.569179    0.398719    7.141112
    2.N         3.194356    1.591110    7.052388
    3.N         1.519851    1.009645    9.468757
    4.N         0.728231   -1.343237    7.719461
    5.N         2.623477   -0.916428    5.441904
    6.C         2.962082    3.006768    6.715130
    7.C         3.759981    1.459508    8.415841
    8.C         2.780122    1.746549    9.552085
    9.C         0.456527    1.708927   10.184973
   10.C         1.626441   -0.390438    9.881302
   11.C         0.600060   -1.290766    9.198076
   12.C        -0.574452   -1.680797    7.118657
   13.C         1.759788   -2.333968    7.331430
   14.C         2.216007   -2.252406    5.875782
   15.C         2.485210   -0.770889    3.995293
   16.C         3.956334   -0.527209    5.905339
   17.C         4.114379    0.983422    6.057461
   18.H         3.014274   -3.003903    5.739217
   19.H         1.399301   -2.570832    5.220757
   20.H         0.665000   -2.302107    9.629132
   21.H        -0.406947   -0.927691    9.421253
   22.H         1.393293   -3.358644    7.512730
   23.H         2.614809   -2.192007    7.999874
   24.H         1.503169   -0.506137   10.973082
   25.H         2.637425   -0.746111    9.656733
   26.H         2.532159    2.812471    9.557187
   27.H         3.315970    1.563572   10.500850
   28.H         4.151696    0.441614    8.508353
   29.H         4.623881    2.134809    8.537626
   30.H         5.162198    1.212371    6.307301
   31.H         3.916248    1.467964    5.097348
   32.H         4.150106   -1.017291    6.865171
   33.H         4.747807   -0.882514    5.221325
   34.H         2.733170    0.248318    3.687337
   35.H         1.447358   -0.954091    3.701019
   36.H         2.257980    3.453393    7.419479
   37.H         2.524443    3.076262    5.715869
   38.H         0.324007    2.711535    9.767141
   39.H        -0.494329    1.182127   10.068515
   40.H        -1.312095   -0.924133    7.398218
   41.H        -0.499074   -1.686746    6.029744
   42.H         3.896735    3.588281    6.734271
   43.H         3.134682   -1.464142    3.433536
   44.H        -0.933369   -2.666587    7.452514
   45.H         0.662433    1.805419   11.264975
 <Oct06-2020> <20:20:19>  >>>> CORORT
 <Oct06-2020> <20:20:19>  >>>> CLSMAT
 <Oct06-2020> <20:20:19>  >>>> ORTHON
 <Oct06-2020> <20:20:19>  >>>> GENPT
 <Oct06-2020> <20:20:19>  Block Length= 128
 <Oct06-2020> <20:20:20>  >>>> PTBAS
 <Oct06-2020> <20:20:28>  >>>> CYCLE
 <Oct06-2020> <20:20:36>              |Error|         MaxErr       Wt(A-DIIS)
 <Oct06-2020> <20:20:36>      1      0.00174407      0.00041192
 <Oct06-2020> <20:20:42>      2      0.00025945      0.00002330    100.0
 <Oct06-2020> <20:20:48>      3      0.00042071      0.00006592    100.0
 <Oct06-2020> <20:20:55>      4      0.00020180      0.00005412      0.0
 <Oct06-2020> <20:21:01>      5      0.00007026      0.00001582      0.0
 <Oct06-2020> <20:21:07>      6      0.00001307      0.00000142      0.0
 <Oct06-2020> <20:21:14>      7      0.00000456      0.00000046      0.0
 <Oct06-2020> <20:21:15>  SCF converged
 <Oct06-2020> <20:21:20>      8      0.00000078      0.00000009      0.0
 <Oct06-2020> <20:21:21>  >>>> TOTEN
 <Oct06-2020> <20:21:34>  >>>> POPAN
 <Oct06-2020> <20:21:34>  >>>> DEBYE
 <Oct06-2020> <20:21:34>  >>>> ENGRAD
 <Oct06-2020> <20:21:58>  current energy                               -8.78712647 Hartree
 <Oct06-2020> <20:21:58>  energy change                      -0.00000042     0.00001000    T
 <Oct06-2020> <20:21:58>  constrained gradient max            0.00011617     0.00010000    F
 <Oct06-2020> <20:21:58>  constrained gradient rms            0.00002144     0.00006667    T
 <Oct06-2020> <20:21:58>  gradient max                        0.00011617
 <Oct06-2020> <20:21:58>  gradient rms                        0.00002144
 <Oct06-2020> <20:21:58>  cart. step max                      0.00104722     0.01000000    T
 <Oct06-2020> <20:21:58>  cart. step rms                      0.00029453     0.00666667    T
  Coordinates in Geometry Cycle 33
    Atom         X           Y           Z   (Angstrom)
    1.Cu        1.568807    0.399128    7.141986
    2.N         3.194187    1.591255    7.052541
    3.N         1.520060    1.009633    9.468712
    4.N         0.728149   -1.343092    7.719436
    5.N         2.623489   -0.916579    5.441638
    6.C         2.961782    3.006936    6.715460
    7.C         3.760157    1.459544    8.415828
    8.C         2.780467    1.746336    9.552320
    9.C         0.456681    1.709021   10.184791
   10.C         1.626411   -0.390490    9.881350
   11.C         0.599982   -1.290735    9.198095
   12.C        -0.574521   -1.680591    7.118560
   13.C         1.759704   -2.333834    7.331427
   14.C         2.216127   -2.252446    5.875794
   15.C         2.485516   -0.771496    3.994965
   16.C         3.956181   -0.527045    5.905245
   17.C         4.113951    0.983637    6.057316
   18.H         3.014553   -3.003870    5.739684
   19.H         1.399613   -2.571239    5.220708
   20.H         0.664938   -2.302117    9.629050
   21.H        -0.407037   -0.927705    9.421314
   22.H         1.393070   -3.358486    7.512612
   23.H         2.614668   -2.191998    7.999957
   24.H         1.502981   -0.506084   10.973125
   25.H         2.637381   -0.746291    9.656922
   26.H         2.532683    2.812295    9.557925
   27.H         3.316337    1.562793   10.500948
   28.H         4.151960    0.441665    8.508136
   29.H         4.624024    2.134904    8.537500
   30.H         5.161810    1.212796    6.306809
   31.H         3.915412    1.468126    5.097260
   32.H         4.149963   -1.017047    6.865119
   33.H         4.747835   -0.882208    5.221360
   34.H         2.733963    0.247506    3.686712
   35.H         1.447630   -0.954346    3.700579
   36.H         2.257818    3.453445    7.420023
   37.H         2.523924    3.076474    5.716302
   38.H         0.324373    2.711675    9.767007
   39.H        -0.494213    1.182351   10.068079
   40.H        -1.312130   -0.923879    7.398058
   41.H        -0.498950   -1.686528    6.029665
   42.H         3.896419    3.588476    6.734447
   43.H         3.134810   -1.465189    3.433542
   44.H        -0.933460   -2.666364    7.452406
   45.H         0.662401    1.805375   11.264834
 <Oct06-2020> <20:21:59>  >>>> CORORT
 <Oct06-2020> <20:21:59>  >>>> CLSMAT
 <Oct06-2020> <20:21:59>  >>>> ORTHON
 <Oct06-2020> <20:21:59>  >>>> GENPT
 <Oct06-2020> <20:22:00>  Block Length= 128
 <Oct06-2020> <20:22:00>  >>>> PTBAS
 <Oct06-2020> <20:22:08>  >>>> CYCLE
 <Oct06-2020> <20:22:16>              |Error|         MaxErr       Wt(A-DIIS)
 <Oct06-2020> <20:22:16>      1      0.00146544      0.00032281
 <Oct06-2020> <20:22:22>      2      0.00025202      0.00003142    100.0
 <Oct06-2020> <20:22:28>      3      0.00057006      0.00013156    100.0
 <Oct06-2020> <20:22:34>      4      0.00023002      0.00005868      0.0
 <Oct06-2020> <20:22:40>      5      0.00004960      0.00000844      0.0
 <Oct06-2020> <20:22:46>      6      0.00001057      0.00000133      0.0
 <Oct06-2020> <20:22:52>      7      0.00000436      0.00000047      0.0
 <Oct06-2020> <20:22:54>  SCF converged
 <Oct06-2020> <20:22:59>      8      0.00000064      0.00000007      0.0
 <Oct06-2020> <20:23:01>  >>>> TOTEN
 <Oct06-2020> <20:23:13>  >>>> POPAN
 <Oct06-2020> <20:23:13>  >>>> DEBYE
 <Oct06-2020> <20:23:13>  >>>> ENGRAD
 <Oct06-2020> <20:23:37>  current energy                               -8.78712680 Hartree
 <Oct06-2020> <20:23:37>  energy change                      -0.00000033     0.00001000    T
 <Oct06-2020> <20:23:37>  constrained gradient max            0.00006262     0.00010000    T
 <Oct06-2020> <20:23:37>  constrained gradient rms            0.00001389     0.00006667    T
 <Oct06-2020> <20:23:37>  gradient max                        0.00006262
 <Oct06-2020> <20:23:37>  gradient rms                        0.00001389
 <Oct06-2020> <20:23:37>  cart. step max                      0.00127551     0.01000000    T
 <Oct06-2020> <20:23:37>  cart. step rms                      0.00022025     0.00666667    T
 <Oct06-2020> <20:23:37>  GEOMETRY CONVERGED
 <Oct06-2020> <20:23:37>  Calculating Energy Terms for Final Geometry
  Coordinates in Geometry Cycle 33
    Atom         X           Y           Z   (Angstrom)
    1.Cu        1.568807    0.399128    7.141986
    2.N         3.194187    1.591255    7.052541
    3.N         1.520060    1.009633    9.468712
    4.N         0.728149   -1.343092    7.719436
    5.N         2.623489   -0.916579    5.441638
    6.C         2.961782    3.006936    6.715460
    7.C         3.760157    1.459544    8.415828
    8.C         2.780467    1.746336    9.552320
    9.C         0.456681    1.709021   10.184791
   10.C         1.626411   -0.390490    9.881350
   11.C         0.599982   -1.290735    9.198095
   12.C        -0.574521   -1.680591    7.118560
   13.C         1.759704   -2.333834    7.331427
   14.C         2.216127   -2.252446    5.875794
   15.C         2.485516   -0.771496    3.994965
   16.C         3.956181   -0.527045    5.905245
   17.C         4.113951    0.983637    6.057316
   18.H         3.014553   -3.003870    5.739684
   19.H         1.399613   -2.571239    5.220708
   20.H         0.664938   -2.302117    9.629050
   21.H        -0.407037   -0.927705    9.421314
   22.H         1.393070   -3.358486    7.512612
   23.H         2.614668   -2.191998    7.999957
   24.H         1.502981   -0.506084   10.973125
   25.H         2.637381   -0.746291    9.656922
   26.H         2.532683    2.812295    9.557925
   27.H         3.316337    1.562793   10.500948
   28.H         4.151960    0.441665    8.508136
   29.H         4.624024    2.134904    8.537500
   30.H         5.161810    1.212796    6.306809
   31.H         3.915412    1.468126    5.097260
   32.H         4.149963   -1.017047    6.865119
   33.H         4.747835   -0.882208    5.221360
   34.H         2.733963    0.247506    3.686712
   35.H         1.447630   -0.954346    3.700579
   36.H         2.257818    3.453445    7.420023
   37.H         2.523924    3.076474    5.716302
   38.H         0.324373    2.711675    9.767007
   39.H        -0.494213    1.182351   10.068079
   40.H        -1.312130   -0.923879    7.398058
   41.H        -0.498950   -1.686528    6.029665
   42.H         3.896419    3.588476    6.734447
   43.H         3.134810   -1.465189    3.433542
   44.H        -0.933460   -2.666364    7.452406
   45.H         0.662401    1.805375   11.264834
 <Oct06-2020> <20:23:38>  >>>> CORORT
 <Oct06-2020> <20:23:38>  >>>> CLSMAT
 <Oct06-2020> <20:23:38>  >>>> ORTHON
 <Oct06-2020> <20:23:38>  >>>> GENPT
 <Oct06-2020> <20:23:38>  Block Length= 128
 <Oct06-2020> <20:23:39>  >>>> PTBAS
 <Oct06-2020> <20:23:46>  >>>> CYCLE
 <Oct06-2020> <20:23:54>              |Error|         MaxErr       Wt(A-DIIS)
 <Oct06-2020> <20:23:54>      1      0.00000024      0.00000004
 <Oct06-2020> <20:24:00>      2      0.00000041      0.00000006    100.0
 <Oct06-2020> <20:24:01>  SCF converged
 <Oct06-2020> <20:24:06>      3      0.00000080      0.00000012    100.0
 <Oct06-2020> <20:24:11>  >>>> TOTEN
 <Oct06-2020> <20:24:31>  >>>> POPAN
 <Oct06-2020> <20:24:31>  >>>> DEBYE
 <Oct06-2020> <20:24:31>  >>>> AMETS
 <Oct06-2020> <20:24:31>  >>>> POPUL
 <Oct06-2020> <20:24:31>   Bond Energy          -8.78712680 a.u.
 <Oct06-2020> <20:24:31>   Bond Energy        -239.10988625 eV
 <Oct06-2020> <20:24:31>   Bond Energy       -5514.01       kcal/mol
 <Oct06-2020> <20:24:31>  >>>> ENHESS
 <Oct06-2020> <20:24:46>  === NUCLEUS:     1
 <Oct06-2020> <20:28:11>  === NUCLEUS:     2
 <Oct06-2020> <20:31:04>  === NUCLEUS:     3
 <Oct06-2020> <20:33:58>  === NUCLEUS:     4
 <Oct06-2020> <20:36:52>  === NUCLEUS:     5
 <Oct06-2020> <20:39:44>  === NUCLEUS:     6
 <Oct06-2020> <20:42:43>  === NUCLEUS:     7
 <Oct06-2020> <20:45:37>  === NUCLEUS:     8
 <Oct06-2020> <20:48:30>  === NUCLEUS:     9
 <Oct06-2020> <20:51:22>  === NUCLEUS:    10
 <Oct06-2020> <20:54:12>  === NUCLEUS:    11
 <Oct06-2020> <20:57:03>  === NUCLEUS:    12
 <Oct06-2020> <20:59:54>  === NUCLEUS:    13
 <Oct06-2020> <21:02:46>  === NUCLEUS:    14
 <Oct06-2020> <21:05:36>  === NUCLEUS:    15
 <Oct06-2020> <21:08:28>  === NUCLEUS:    16
 <Oct06-2020> <21:11:20>  === NUCLEUS:    17
 <Oct06-2020> <21:14:12>  === NUCLEUS:    18
 <Oct06-2020> <21:16:41>  === NUCLEUS:    19
 <Oct06-2020> <21:19:23>  === NUCLEUS:    20
 <Oct06-2020> <21:21:49>  === NUCLEUS:    21
 <Oct06-2020> <21:24:28>  === NUCLEUS:    22
 <Oct06-2020> <21:27:07>  === NUCLEUS:    23
 <Oct06-2020> <21:29:47>  === NUCLEUS:    24
 <Oct06-2020> <21:32:26>  === NUCLEUS:    25
 <Oct06-2020> <21:35:04>  === NUCLEUS:    26
 <Oct06-2020> <21:37:36>  === NUCLEUS:    27
 <Oct06-2020> <21:40:10>  === NUCLEUS:    28
 <Oct06-2020> <21:42:53>  === NUCLEUS:    29
 <Oct06-2020> <21:45:29>  === NUCLEUS:    30
 <Oct06-2020> <21:48:11>  === NUCLEUS:    31
 <Oct06-2020> <21:50:51>  === NUCLEUS:    32
 <Oct06-2020> <21:53:32>  === NUCLEUS:    33
 <Oct06-2020> <21:56:16>  === NUCLEUS:    34
 <Oct06-2020> <21:58:51>  === NUCLEUS:    35
 <Oct06-2020> <22:01:27>  === NUCLEUS:    36
 <Oct06-2020> <22:04:12>  === NUCLEUS:    37
 <Oct06-2020> <22:06:51>  === NUCLEUS:    38
 <Oct06-2020> <22:09:32>  === NUCLEUS:    39
 <Oct06-2020> <22:12:07>  === NUCLEUS:    40
 <Oct06-2020> <22:14:46>  === NUCLEUS:    41
 <Oct06-2020> <22:17:26>  === NUCLEUS:    42
 <Oct06-2020> <22:20:10>  === NUCLEUS:    43
 <Oct06-2020> <22:23:00>  === NUCLEUS:    44
 <Oct06-2020> <22:25:49>  === NUCLEUS:    45
 <Oct06-2020> <22:28:28>  >>>> CALC_HESS_PMAT
 <Oct06-2020> <22:29:39>  >>>> CALC_HESS_WMAT
 <Oct06-2020> <22:29:50>  NORMAL TERMINATION
 <Oct06-2020> <22:29:50>  END
